V -t * -v 1.0a5 -a 0
A -t * -n 1 -p 0 -o 0x7fffffff -c 30 -a 1
A -t * -h 1 -m 1073741823 -s 0
n -t * -a 0 -s 0 -S UP -v circle -c black -i black
n -t * -a 1 -s 1 -S UP -v circle -c black -i black
n -t * -a 2 -s 2 -S UP -v circle -c black -i black
l -t * -s 0 -d 1 -S UP -r 1000000 -D 0.050000000000000003 -c black -o right
l -t * -s 1 -d 2 -S UP -r 100000 -D 0.0050000000000000001 -c black -o right
q -t * -s 2 -d 1 -a 0.5
q -t * -s 1 -d 2 -a 0.5
+ -t 0.1 -s 0 -d 1 -p cbr -e 100 -c 0 -i 0 -a 0 -x {0.0 2.0 0 ------- null}
- -t 0.1 -s 0 -d 1 -p cbr -e 100 -c 0 -i 0 -a 0 -x {0.0 2.0 0 ------- null}
h -t 0.1 -s 0 -d 1 -p cbr -e 100 -c 0 -i 0 -a 0 -x {0.0 2.0 -1 ------- null}
+ -t 0.105 -s 0 -d 1 -p cbr -e 100 -c 0 -i 1 -a 0 -x {0.0 2.0 1 ------- null}
- -t 0.105 -s 0 -d 1 -p cbr -e 100 -c 0 -i 1 -a 0 -x {0.0 2.0 1 ------- null}
h -t 0.105 -s 0 -d 1 -p cbr -e 100 -c 0 -i 1 -a 0 -x {0.0 2.0 -1 ------- null}
+ -t 0.11 -s 0 -d 1 -p cbr -e 100 -c 0 -i 2 -a 0 -x {0.0 2.0 2 ------- null}
- -t 0.11 -s 0 -d 1 -p cbr -e 100 -c 0 -i 2 -a 0 -x {0.0 2.0 2 ------- null}
h -t 0.11 -s 0 -d 1 -p cbr -e 100 -c 0 -i 2 -a 0 -x {0.0 2.0 -1 ------- null}
+ -t 0.115 -s 0 -d 1 -p cbr -e 100 -c 0 -i 3 -a 0 -x {0.0 2.0 3 ------- null}
- -t 0.115 -s 0 -d 1 -p cbr -e 100 -c 0 -i 3 -a 0 -x {0.0 2.0 3 ------- null}
h -t 0.115 -s 0 -d 1 -p cbr -e 100 -c 0 -i 3 -a 0 -x {0.0 2.0 -1 ------- null}
+ -t 0.12 -s 0 -d 1 -p cbr -e 100 -c 0 -i 4 -a 0 -x {0.0 2.0 4 ------- null}
- -t 0.12 -s 0 -d 1 -p cbr -e 100 -c 0 -i 4 -a 0 -x {0.0 2.0 4 ------- null}
h -t 0.12 -s 0 -d 1 -p cbr -e 100 -c 0 -i 4 -a 0 -x {0.0 2.0 -1 ------- null}
+ -t 0.125 -s 0 -d 1 -p cbr -e 100 -c 0 -i 5 -a 0 -x {0.0 2.0 5 ------- null}
- -t 0.125 -s 0 -d 1 -p cbr -e 100 -c 0 -i 5 -a 0 -x {0.0 2.0 5 ------- null}
h -t 0.125 -s 0 -d 1 -p cbr -e 100 -c 0 -i 5 -a 0 -x {0.0 2.0 -1 ------- null}
+ -t 0.13 -s 0 -d 1 -p cbr -e 100 -c 0 -i 6 -a 0 -x {0.0 2.0 6 ------- null}
- -t 0.13 -s 0 -d 1 -p cbr -e 100 -c 0 -i 6 -a 0 -x {0.0 2.0 6 ------- null}
h -t 0.13 -s 0 -d 1 -p cbr -e 100 -c 0 -i 6 -a 0 -x {0.0 2.0 -1 ------- null}
+ -t 0.135 -s 0 -d 1 -p cbr -e 100 -c 0 -i 7 -a 0 -x {0.0 2.0 7 ------- null}
- -t 0.135 -s 0 -d 1 -p cbr -e 100 -c 0 -i 7 -a 0 -x {0.0 2.0 7 ------- null}
h -t 0.135 -s 0 -d 1 -p cbr -e 100 -c 0 -i 7 -a 0 -x {0.0 2.0 -1 ------- null}
+ -t 0.14 -s 0 -d 1 -p cbr -e 100 -c 0 -i 8 -a 0 -x {0.0 2.0 8 ------- null}
- -t 0.14 -s 0 -d 1 -p cbr -e 100 -c 0 -i 8 -a 0 -x {0.0 2.0 8 ------- null}
h -t 0.14 -s 0 -d 1 -p cbr -e 100 -c 0 -i 8 -a 0 -x {0.0 2.0 -1 ------- null}
+ -t 0.145 -s 0 -d 1 -p cbr -e 100 -c 0 -i 9 -a 0 -x {0.0 2.0 9 ------- null}
- -t 0.145 -s 0 -d 1 -p cbr -e 100 -c 0 -i 9 -a 0 -x {0.0 2.0 9 ------- null}
h -t 0.145 -s 0 -d 1 -p cbr -e 100 -c 0 -i 9 -a 0 -x {0.0 2.0 -1 ------- null}
+ -t 0.15 -s 0 -d 1 -p cbr -e 100 -c 0 -i 10 -a 0 -x {0.0 2.0 10 ------- null}
- -t 0.15 -s 0 -d 1 -p cbr -e 100 -c 0 -i 10 -a 0 -x {0.0 2.0 10 ------- null}
h -t 0.15 -s 0 -d 1 -p cbr -e 100 -c 0 -i 10 -a 0 -x {0.0 2.0 -1 ------- null}
r -t 0.1508 -s 0 -d 1 -p cbr -e 100 -c 0 -i 0 -a 0 -x {0.0 2.0 0 ------- null}
+ -t 0.1508 -s 1 -d 2 -p cbr -e 100 -c 0 -i 0 -a 0 -x {0.0 2.0 0 ------- null}
- -t 0.1508 -s 1 -d 2 -p cbr -e 100 -c 0 -i 0 -a 0 -x {0.0 2.0 0 ------- null}
h -t 0.1508 -s 1 -d 2 -p cbr -e 100 -c 0 -i 0 -a 0 -x {0.0 2.0 -1 ------- null}
+ -t 0.155 -s 0 -d 1 -p cbr -e 100 -c 0 -i 11 -a 0 -x {0.0 2.0 11 ------- null}
- -t 0.155 -s 0 -d 1 -p cbr -e 100 -c 0 -i 11 -a 0 -x {0.0 2.0 11 ------- null}
h -t 0.155 -s 0 -d 1 -p cbr -e 100 -c 0 -i 11 -a 0 -x {0.0 2.0 -1 ------- null}
r -t 0.1558 -s 0 -d 1 -p cbr -e 100 -c 0 -i 1 -a 0 -x {0.0 2.0 1 ------- null}
+ -t 0.1558 -s 1 -d 2 -p cbr -e 100 -c 0 -i 1 -a 0 -x {0.0 2.0 1 ------- null}
- -t 0.1588 -s 1 -d 2 -p cbr -e 100 -c 0 -i 1 -a 0 -x {0.0 2.0 1 ------- null}
h -t 0.1588 -s 1 -d 2 -p cbr -e 100 -c 0 -i 1 -a 0 -x {0.0 2.0 -1 ------- null}
+ -t 0.16 -s 0 -d 1 -p cbr -e 100 -c 0 -i 12 -a 0 -x {0.0 2.0 12 ------- null}
- -t 0.16 -s 0 -d 1 -p cbr -e 100 -c 0 -i 12 -a 0 -x {0.0 2.0 12 ------- null}
h -t 0.16 -s 0 -d 1 -p cbr -e 100 -c 0 -i 12 -a 0 -x {0.0 2.0 -1 ------- null}
r -t 0.1608 -s 0 -d 1 -p cbr -e 100 -c 0 -i 2 -a 0 -x {0.0 2.0 2 ------- null}
+ -t 0.1608 -s 1 -d 2 -p cbr -e 100 -c 0 -i 2 -a 0 -x {0.0 2.0 2 ------- null}
r -t 0.1638 -s 1 -d 2 -p cbr -e 100 -c 0 -i 0 -a 0 -x {0.0 2.0 0 ------- null}
+ -t 0.165 -s 0 -d 1 -p cbr -e 100 -c 0 -i 13 -a 0 -x {0.0 2.0 13 ------- null}
- -t 0.165 -s 0 -d 1 -p cbr -e 100 -c 0 -i 13 -a 0 -x {0.0 2.0 13 ------- null}
h -t 0.165 -s 0 -d 1 -p cbr -e 100 -c 0 -i 13 -a 0 -x {0.0 2.0 -1 ------- null}
r -t 0.1658 -s 0 -d 1 -p cbr -e 100 -c 0 -i 3 -a 0 -x {0.0 2.0 3 ------- null}
+ -t 0.1658 -s 1 -d 2 -p cbr -e 100 -c 0 -i 3 -a 0 -x {0.0 2.0 3 ------- null}
- -t 0.1668 -s 1 -d 2 -p cbr -e 100 -c 0 -i 2 -a 0 -x {0.0 2.0 2 ------- null}
h -t 0.1668 -s 1 -d 2 -p cbr -e 100 -c 0 -i 2 -a 0 -x {0.0 2.0 -1 ------- null}
+ -t 0.17 -s 0 -d 1 -p cbr -e 100 -c 0 -i 14 -a 0 -x {0.0 2.0 14 ------- null}
- -t 0.17 -s 0 -d 1 -p cbr -e 100 -c 0 -i 14 -a 0 -x {0.0 2.0 14 ------- null}
h -t 0.17 -s 0 -d 1 -p cbr -e 100 -c 0 -i 14 -a 0 -x {0.0 2.0 -1 ------- null}
r -t 0.1708 -s 0 -d 1 -p cbr -e 100 -c 0 -i 4 -a 0 -x {0.0 2.0 4 ------- null}
+ -t 0.1708 -s 1 -d 2 -p cbr -e 100 -c 0 -i 4 -a 0 -x {0.0 2.0 4 ------- null}
r -t 0.1718 -s 1 -d 2 -p cbr -e 100 -c 0 -i 1 -a 0 -x {0.0 2.0 1 ------- null}
- -t 0.1748 -s 1 -d 2 -p cbr -e 100 -c 0 -i 3 -a 0 -x {0.0 2.0 3 ------- null}
h -t 0.1748 -s 1 -d 2 -p cbr -e 100 -c 0 -i 3 -a 0 -x {0.0 2.0 -1 ------- null}
+ -t 0.175 -s 0 -d 1 -p cbr -e 100 -c 0 -i 15 -a 0 -x {0.0 2.0 15 ------- null}
- -t 0.175 -s 0 -d 1 -p cbr -e 100 -c 0 -i 15 -a 0 -x {0.0 2.0 15 ------- null}
h -t 0.175 -s 0 -d 1 -p cbr -e 100 -c 0 -i 15 -a 0 -x {0.0 2.0 -1 ------- null}
r -t 0.1758 -s 0 -d 1 -p cbr -e 100 -c 0 -i 5 -a 0 -x {0.0 2.0 5 ------- null}
+ -t 0.1758 -s 1 -d 2 -p cbr -e 100 -c 0 -i 5 -a 0 -x {0.0 2.0 5 ------- null}
r -t 0.1798 -s 1 -d 2 -p cbr -e 100 -c 0 -i 2 -a 0 -x {0.0 2.0 2 ------- null}
+ -t 0.18 -s 0 -d 1 -p cbr -e 100 -c 0 -i 16 -a 0 -x {0.0 2.0 16 ------- null}
- -t 0.18 -s 0 -d 1 -p cbr -e 100 -c 0 -i 16 -a 0 -x {0.0 2.0 16 ------- null}
h -t 0.18 -s 0 -d 1 -p cbr -e 100 -c 0 -i 16 -a 0 -x {0.0 2.0 -1 ------- null}
r -t 0.1808 -s 0 -d 1 -p cbr -e 100 -c 0 -i 6 -a 0 -x {0.0 2.0 6 ------- null}
+ -t 0.1808 -s 1 -d 2 -p cbr -e 100 -c 0 -i 6 -a 0 -x {0.0 2.0 6 ------- null}
- -t 0.1828 -s 1 -d 2 -p cbr -e 100 -c 0 -i 4 -a 0 -x {0.0 2.0 4 ------- null}
h -t 0.1828 -s 1 -d 2 -p cbr -e 100 -c 0 -i 4 -a 0 -x {0.0 2.0 -1 ------- null}
+ -t 0.185 -s 0 -d 1 -p cbr -e 100 -c 0 -i 17 -a 0 -x {0.0 2.0 17 ------- null}
- -t 0.185 -s 0 -d 1 -p cbr -e 100 -c 0 -i 17 -a 0 -x {0.0 2.0 17 ------- null}
h -t 0.185 -s 0 -d 1 -p cbr -e 100 -c 0 -i 17 -a 0 -x {0.0 2.0 -1 ------- null}
r -t 0.1858 -s 0 -d 1 -p cbr -e 100 -c 0 -i 7 -a 0 -x {0.0 2.0 7 ------- null}
+ -t 0.1858 -s 1 -d 2 -p cbr -e 100 -c 0 -i 7 -a 0 -x {0.0 2.0 7 ------- null}
r -t 0.1878 -s 1 -d 2 -p cbr -e 100 -c 0 -i 3 -a 0 -x {0.0 2.0 3 ------- null}
+ -t 0.19 -s 0 -d 1 -p cbr -e 100 -c 0 -i 18 -a 0 -x {0.0 2.0 18 ------- null}
- -t 0.19 -s 0 -d 1 -p cbr -e 100 -c 0 -i 18 -a 0 -x {0.0 2.0 18 ------- null}
h -t 0.19 -s 0 -d 1 -p cbr -e 100 -c 0 -i 18 -a 0 -x {0.0 2.0 -1 ------- null}
r -t 0.1908 -s 0 -d 1 -p cbr -e 100 -c 0 -i 8 -a 0 -x {0.0 2.0 8 ------- null}
+ -t 0.1908 -s 1 -d 2 -p cbr -e 100 -c 0 -i 8 -a 0 -x {0.0 2.0 8 ------- null}
- -t 0.1908 -s 1 -d 2 -p cbr -e 100 -c 0 -i 5 -a 0 -x {0.0 2.0 5 ------- null}
h -t 0.1908 -s 1 -d 2 -p cbr -e 100 -c 0 -i 5 -a 0 -x {0.0 2.0 -1 ------- null}
+ -t 0.195 -s 0 -d 1 -p cbr -e 100 -c 0 -i 19 -a 0 -x {0.0 2.0 19 ------- null}
- -t 0.195 -s 0 -d 1 -p cbr -e 100 -c 0 -i 19 -a 0 -x {0.0 2.0 19 ------- null}
h -t 0.195 -s 0 -d 1 -p cbr -e 100 -c 0 -i 19 -a 0 -x {0.0 2.0 -1 ------- null}
r -t 0.1958 -s 0 -d 1 -p cbr -e 100 -c 0 -i 9 -a 0 -x {0.0 2.0 9 ------- null}
+ -t 0.1958 -s 1 -d 2 -p cbr -e 100 -c 0 -i 9 -a 0 -x {0.0 2.0 9 ------- null}
r -t 0.1958 -s 1 -d 2 -p cbr -e 100 -c 0 -i 4 -a 0 -x {0.0 2.0 4 ------- null}
- -t 0.1988 -s 1 -d 2 -p cbr -e 100 -c 0 -i 6 -a 0 -x {0.0 2.0 6 ------- null}
h -t 0.1988 -s 1 -d 2 -p cbr -e 100 -c 0 -i 6 -a 0 -x {0.0 2.0 -1 ------- null}
+ -t 0.2 -s 0 -d 1 -p cbr -e 100 -c 0 -i 20 -a 0 -x {0.0 2.0 20 ------- null}
- -t 0.2 -s 0 -d 1 -p cbr -e 100 -c 0 -i 20 -a 0 -x {0.0 2.0 20 ------- null}
h -t 0.2 -s 0 -d 1 -p cbr -e 100 -c 0 -i 20 -a 0 -x {0.0 2.0 -1 ------- null}
r -t 0.2008 -s 0 -d 1 -p cbr -e 100 -c 0 -i 10 -a 0 -x {0.0 2.0 10 ------- null}
+ -t 0.2008 -s 1 -d 2 -p cbr -e 100 -c 0 -i 10 -a 0 -x {0.0 2.0 10 ------- null}
r -t 0.2038 -s 1 -d 2 -p cbr -e 100 -c 0 -i 5 -a 0 -x {0.0 2.0 5 ------- null}
+ -t 0.205 -s 0 -d 1 -p cbr -e 100 -c 0 -i 21 -a 0 -x {0.0 2.0 21 ------- null}
- -t 0.205 -s 0 -d 1 -p cbr -e 100 -c 0 -i 21 -a 0 -x {0.0 2.0 21 ------- null}
h -t 0.205 -s 0 -d 1 -p cbr -e 100 -c 0 -i 21 -a 0 -x {0.0 2.0 -1 ------- null}
r -t 0.2058 -s 0 -d 1 -p cbr -e 100 -c 0 -i 11 -a 0 -x {0.0 2.0 11 ------- null}
+ -t 0.2058 -s 1 -d 2 -p cbr -e 100 -c 0 -i 11 -a 0 -x {0.0 2.0 11 ------- null}
- -t 0.2068 -s 1 -d 2 -p cbr -e 100 -c 0 -i 7 -a 0 -x {0.0 2.0 7 ------- null}
h -t 0.2068 -s 1 -d 2 -p cbr -e 100 -c 0 -i 7 -a 0 -x {0.0 2.0 -1 ------- null}
+ -t 0.21 -s 0 -d 1 -p cbr -e 100 -c 0 -i 22 -a 0 -x {0.0 2.0 22 ------- null}
- -t 0.21 -s 0 -d 1 -p cbr -e 100 -c 0 -i 22 -a 0 -x {0.0 2.0 22 ------- null}
h -t 0.21 -s 0 -d 1 -p cbr -e 100 -c 0 -i 22 -a 0 -x {0.0 2.0 -1 ------- null}
r -t 0.2108 -s 0 -d 1 -p cbr -e 100 -c 0 -i 12 -a 0 -x {0.0 2.0 12 ------- null}
+ -t 0.2108 -s 1 -d 2 -p cbr -e 100 -c 0 -i 12 -a 0 -x {0.0 2.0 12 ------- null}
r -t 0.2118 -s 1 -d 2 -p cbr -e 100 -c 0 -i 6 -a 0 -x {0.0 2.0 6 ------- null}
- -t 0.2148 -s 1 -d 2 -p cbr -e 100 -c 0 -i 8 -a 0 -x {0.0 2.0 8 ------- null}
h -t 0.2148 -s 1 -d 2 -p cbr -e 100 -c 0 -i 8 -a 0 -x {0.0 2.0 -1 ------- null}
+ -t 0.215 -s 0 -d 1 -p cbr -e 100 -c 0 -i 23 -a 0 -x {0.0 2.0 23 ------- null}
- -t 0.215 -s 0 -d 1 -p cbr -e 100 -c 0 -i 23 -a 0 -x {0.0 2.0 23 ------- null}
h -t 0.215 -s 0 -d 1 -p cbr -e 100 -c 0 -i 23 -a 0 -x {0.0 2.0 -1 ------- null}
r -t 0.2158 -s 0 -d 1 -p cbr -e 100 -c 0 -i 13 -a 0 -x {0.0 2.0 13 ------- null}
+ -t 0.2158 -s 1 -d 2 -p cbr -e 100 -c 0 -i 13 -a 0 -x {0.0 2.0 13 ------- null}
r -t 0.2198 -s 1 -d 2 -p cbr -e 100 -c 0 -i 7 -a 0 -x {0.0 2.0 7 ------- null}
+ -t 0.22 -s 0 -d 1 -p cbr -e 100 -c 0 -i 24 -a 0 -x {0.0 2.0 24 ------- null}
- -t 0.22 -s 0 -d 1 -p cbr -e 100 -c 0 -i 24 -a 0 -x {0.0 2.0 24 ------- null}
h -t 0.22 -s 0 -d 1 -p cbr -e 100 -c 0 -i 24 -a 0 -x {0.0 2.0 -1 ------- null}
r -t 0.2208 -s 0 -d 1 -p cbr -e 100 -c 0 -i 14 -a 0 -x {0.0 2.0 14 ------- null}
+ -t 0.2208 -s 1 -d 2 -p cbr -e 100 -c 0 -i 14 -a 0 -x {0.0 2.0 14 ------- null}
- -t 0.2228 -s 1 -d 2 -p cbr -e 100 -c 0 -i 9 -a 0 -x {0.0 2.0 9 ------- null}
h -t 0.2228 -s 1 -d 2 -p cbr -e 100 -c 0 -i 9 -a 0 -x {0.0 2.0 -1 ------- null}
+ -t 0.225 -s 0 -d 1 -p cbr -e 100 -c 0 -i 25 -a 0 -x {0.0 2.0 25 ------- null}
- -t 0.225 -s 0 -d 1 -p cbr -e 100 -c 0 -i 25 -a 0 -x {0.0 2.0 25 ------- null}
h -t 0.225 -s 0 -d 1 -p cbr -e 100 -c 0 -i 25 -a 0 -x {0.0 2.0 -1 ------- null}
r -t 0.2258 -s 0 -d 1 -p cbr -e 100 -c 0 -i 15 -a 0 -x {0.0 2.0 15 ------- null}
+ -t 0.2258 -s 1 -d 2 -p cbr -e 100 -c 0 -i 15 -a 0 -x {0.0 2.0 15 ------- null}
r -t 0.2278 -s 1 -d 2 -p cbr -e 100 -c 0 -i 8 -a 0 -x {0.0 2.0 8 ------- null}
+ -t 0.23 -s 0 -d 1 -p cbr -e 100 -c 0 -i 26 -a 0 -x {0.0 2.0 26 ------- null}
- -t 0.23 -s 0 -d 1 -p cbr -e 100 -c 0 -i 26 -a 0 -x {0.0 2.0 26 ------- null}
h -t 0.23 -s 0 -d 1 -p cbr -e 100 -c 0 -i 26 -a 0 -x {0.0 2.0 -1 ------- null}
r -t 0.2308 -s 0 -d 1 -p cbr -e 100 -c 0 -i 16 -a 0 -x {0.0 2.0 16 ------- null}
+ -t 0.2308 -s 1 -d 2 -p cbr -e 100 -c 0 -i 16 -a 0 -x {0.0 2.0 16 ------- null}
- -t 0.2308 -s 1 -d 2 -p cbr -e 100 -c 0 -i 10 -a 0 -x {0.0 2.0 10 ------- null}
h -t 0.2308 -s 1 -d 2 -p cbr -e 100 -c 0 -i 10 -a 0 -x {0.0 2.0 -1 ------- null}
+ -t 0.235 -s 0 -d 1 -p cbr -e 100 -c 0 -i 27 -a 0 -x {0.0 2.0 27 ------- null}
- -t 0.235 -s 0 -d 1 -p cbr -e 100 -c 0 -i 27 -a 0 -x {0.0 2.0 27 ------- null}
h -t 0.235 -s 0 -d 1 -p cbr -e 100 -c 0 -i 27 -a 0 -x {0.0 2.0 -1 ------- null}
r -t 0.2358 -s 0 -d 1 -p cbr -e 100 -c 0 -i 17 -a 0 -x {0.0 2.0 17 ------- null}
+ -t 0.2358 -s 1 -d 2 -p cbr -e 100 -c 0 -i 17 -a 0 -x {0.0 2.0 17 ------- null}
r -t 0.2358 -s 1 -d 2 -p cbr -e 100 -c 0 -i 9 -a 0 -x {0.0 2.0 9 ------- null}
- -t 0.2388 -s 1 -d 2 -p cbr -e 100 -c 0 -i 11 -a 0 -x {0.0 2.0 11 ------- null}
h -t 0.2388 -s 1 -d 2 -p cbr -e 100 -c 0 -i 11 -a 0 -x {0.0 2.0 -1 ------- null}
+ -t 0.24 -s 0 -d 1 -p cbr -e 100 -c 0 -i 28 -a 0 -x {0.0 2.0 28 ------- null}
- -t 0.24 -s 0 -d 1 -p cbr -e 100 -c 0 -i 28 -a 0 -x {0.0 2.0 28 ------- null}
h -t 0.24 -s 0 -d 1 -p cbr -e 100 -c 0 -i 28 -a 0 -x {0.0 2.0 -1 ------- null}
r -t 0.2408 -s 0 -d 1 -p cbr -e 100 -c 0 -i 18 -a 0 -x {0.0 2.0 18 ------- null}
+ -t 0.2408 -s 1 -d 2 -p cbr -e 100 -c 0 -i 18 -a 0 -x {0.0 2.0 18 ------- null}
r -t 0.2438 -s 1 -d 2 -p cbr -e 100 -c 0 -i 10 -a 0 -x {0.0 2.0 10 ------- null}
+ -t 0.245 -s 0 -d 1 -p cbr -e 100 -c 0 -i 29 -a 0 -x {0.0 2.0 29 ------- null}
- -t 0.245 -s 0 -d 1 -p cbr -e 100 -c 0 -i 29 -a 0 -x {0.0 2.0 29 ------- null}
h -t 0.245 -s 0 -d 1 -p cbr -e 100 -c 0 -i 29 -a 0 -x {0.0 2.0 -1 ------- null}
r -t 0.2458 -s 0 -d 1 -p cbr -e 100 -c 0 -i 19 -a 0 -x {0.0 2.0 19 ------- null}
+ -t 0.2458 -s 1 -d 2 -p cbr -e 100 -c 0 -i 19 -a 0 -x {0.0 2.0 19 ------- null}
- -t 0.2468 -s 1 -d 2 -p cbr -e 100 -c 0 -i 12 -a 0 -x {0.0 2.0 12 ------- null}
h -t 0.2468 -s 1 -d 2 -p cbr -e 100 -c 0 -i 12 -a 0 -x {0.0 2.0 -1 ------- null}
+ -t 0.25 -s 0 -d 1 -p cbr -e 100 -c 0 -i 30 -a 0 -x {0.0 2.0 30 ------- null}
- -t 0.25 -s 0 -d 1 -p cbr -e 100 -c 0 -i 30 -a 0 -x {0.0 2.0 30 ------- null}
h -t 0.25 -s 0 -d 1 -p cbr -e 100 -c 0 -i 30 -a 0 -x {0.0 2.0 -1 ------- null}
r -t 0.2508 -s 0 -d 1 -p cbr -e 100 -c 0 -i 20 -a 0 -x {0.0 2.0 20 ------- null}
+ -t 0.2508 -s 1 -d 2 -p cbr -e 100 -c 0 -i 20 -a 0 -x {0.0 2.0 20 ------- null}
r -t 0.2518 -s 1 -d 2 -p cbr -e 100 -c 0 -i 11 -a 0 -x {0.0 2.0 11 ------- null}
- -t 0.2548 -s 1 -d 2 -p cbr -e 100 -c 0 -i 13 -a 0 -x {0.0 2.0 13 ------- null}
h -t 0.2548 -s 1 -d 2 -p cbr -e 100 -c 0 -i 13 -a 0 -x {0.0 2.0 -1 ------- null}
+ -t 0.255 -s 0 -d 1 -p cbr -e 100 -c 0 -i 31 -a 0 -x {0.0 2.0 31 ------- null}
- -t 0.255 -s 0 -d 1 -p cbr -e 100 -c 0 -i 31 -a 0 -x {0.0 2.0 31 ------- null}
h -t 0.255 -s 0 -d 1 -p cbr -e 100 -c 0 -i 31 -a 0 -x {0.0 2.0 -1 ------- null}
r -t 0.2558 -s 0 -d 1 -p cbr -e 100 -c 0 -i 21 -a 0 -x {0.0 2.0 21 ------- null}
+ -t 0.2558 -s 1 -d 2 -p cbr -e 100 -c 0 -i 21 -a 0 -x {0.0 2.0 21 ------- null}
r -t 0.2598 -s 1 -d 2 -p cbr -e 100 -c 0 -i 12 -a 0 -x {0.0 2.0 12 ------- null}
+ -t 0.26 -s 0 -d 1 -p cbr -e 100 -c 0 -i 32 -a 0 -x {0.0 2.0 32 ------- null}
- -t 0.26 -s 0 -d 1 -p cbr -e 100 -c 0 -i 32 -a 0 -x {0.0 2.0 32 ------- null}
h -t 0.26 -s 0 -d 1 -p cbr -e 100 -c 0 -i 32 -a 0 -x {0.0 2.0 -1 ------- null}
r -t 0.2608 -s 0 -d 1 -p cbr -e 100 -c 0 -i 22 -a 0 -x {0.0 2.0 22 ------- null}
+ -t 0.2608 -s 1 -d 2 -p cbr -e 100 -c 0 -i 22 -a 0 -x {0.0 2.0 22 ------- null}
- -t 0.2628 -s 1 -d 2 -p cbr -e 100 -c 0 -i 14 -a 0 -x {0.0 2.0 14 ------- null}
h -t 0.2628 -s 1 -d 2 -p cbr -e 100 -c 0 -i 14 -a 0 -x {0.0 2.0 -1 ------- null}
+ -t 0.265 -s 0 -d 1 -p cbr -e 100 -c 0 -i 33 -a 0 -x {0.0 2.0 33 ------- null}
- -t 0.265 -s 0 -d 1 -p cbr -e 100 -c 0 -i 33 -a 0 -x {0.0 2.0 33 ------- null}
h -t 0.265 -s 0 -d 1 -p cbr -e 100 -c 0 -i 33 -a 0 -x {0.0 2.0 -1 ------- null}
r -t 0.2658 -s 0 -d 1 -p cbr -e 100 -c 0 -i 23 -a 0 -x {0.0 2.0 23 ------- null}
+ -t 0.2658 -s 1 -d 2 -p cbr -e 100 -c 0 -i 23 -a 0 -x {0.0 2.0 23 ------- null}
r -t 0.2678 -s 1 -d 2 -p cbr -e 100 -c 0 -i 13 -a 0 -x {0.0 2.0 13 ------- null}
+ -t 0.27 -s 0 -d 1 -p cbr -e 100 -c 0 -i 34 -a 0 -x {0.0 2.0 34 ------- null}
- -t 0.27 -s 0 -d 1 -p cbr -e 100 -c 0 -i 34 -a 0 -x {0.0 2.0 34 ------- null}
h -t 0.27 -s 0 -d 1 -p cbr -e 100 -c 0 -i 34 -a 0 -x {0.0 2.0 -1 ------- null}
r -t 0.2708 -s 0 -d 1 -p cbr -e 100 -c 0 -i 24 -a 0 -x {0.0 2.0 24 ------- null}
+ -t 0.2708 -s 1 -d 2 -p cbr -e 100 -c 0 -i 24 -a 0 -x {0.0 2.0 24 ------- null}
d -t 0.2708 -s 1 -d 2 -p cbr -e 100 -c 0 -i 24 -a 0 -x {0.0 2.0 24 ------- null}
- -t 0.2708 -s 1 -d 2 -p cbr -e 100 -c 0 -i 15 -a 0 -x {0.0 2.0 15 ------- null}
h -t 0.2708 -s 1 -d 2 -p cbr -e 100 -c 0 -i 15 -a 0 -x {0.0 2.0 -1 ------- null}
+ -t 0.275 -s 0 -d 1 -p cbr -e 100 -c 0 -i 35 -a 0 -x {0.0 2.0 35 ------- null}
- -t 0.275 -s 0 -d 1 -p cbr -e 100 -c 0 -i 35 -a 0 -x {0.0 2.0 35 ------- null}
h -t 0.275 -s 0 -d 1 -p cbr -e 100 -c 0 -i 35 -a 0 -x {0.0 2.0 -1 ------- null}
r -t 0.2758 -s 0 -d 1 -p cbr -e 100 -c 0 -i 25 -a 0 -x {0.0 2.0 25 ------- null}
+ -t 0.2758 -s 1 -d 2 -p cbr -e 100 -c 0 -i 25 -a 0 -x {0.0 2.0 25 ------- null}
r -t 0.2758 -s 1 -d 2 -p cbr -e 100 -c 0 -i 14 -a 0 -x {0.0 2.0 14 ------- null}
- -t 0.2788 -s 1 -d 2 -p cbr -e 100 -c 0 -i 16 -a 0 -x {0.0 2.0 16 ------- null}
h -t 0.2788 -s 1 -d 2 -p cbr -e 100 -c 0 -i 16 -a 0 -x {0.0 2.0 -1 ------- null}
+ -t 0.28 -s 0 -d 1 -p cbr -e 100 -c 0 -i 36 -a 0 -x {0.0 2.0 36 ------- null}
- -t 0.28 -s 0 -d 1 -p cbr -e 100 -c 0 -i 36 -a 0 -x {0.0 2.0 36 ------- null}
h -t 0.28 -s 0 -d 1 -p cbr -e 100 -c 0 -i 36 -a 0 -x {0.0 2.0 -1 ------- null}
r -t 0.2808 -s 0 -d 1 -p cbr -e 100 -c 0 -i 26 -a 0 -x {0.0 2.0 26 ------- null}
+ -t 0.2808 -s 1 -d 2 -p cbr -e 100 -c 0 -i 26 -a 0 -x {0.0 2.0 26 ------- null}
r -t 0.2838 -s 1 -d 2 -p cbr -e 100 -c 0 -i 15 -a 0 -x {0.0 2.0 15 ------- null}
+ -t 0.285 -s 0 -d 1 -p cbr -e 100 -c 0 -i 37 -a 0 -x {0.0 2.0 37 ------- null}
- -t 0.285 -s 0 -d 1 -p cbr -e 100 -c 0 -i 37 -a 0 -x {0.0 2.0 37 ------- null}
h -t 0.285 -s 0 -d 1 -p cbr -e 100 -c 0 -i 37 -a 0 -x {0.0 2.0 -1 ------- null}
r -t 0.2858 -s 0 -d 1 -p cbr -e 100 -c 0 -i 27 -a 0 -x {0.0 2.0 27 ------- null}
+ -t 0.2858 -s 1 -d 2 -p cbr -e 100 -c 0 -i 27 -a 0 -x {0.0 2.0 27 ------- null}
d -t 0.2858 -s 1 -d 2 -p cbr -e 100 -c 0 -i 27 -a 0 -x {0.0 2.0 27 ------- null}
- -t 0.2868 -s 1 -d 2 -p cbr -e 100 -c 0 -i 17 -a 0 -x {0.0 2.0 17 ------- null}
h -t 0.2868 -s 1 -d 2 -p cbr -e 100 -c 0 -i 17 -a 0 -x {0.0 2.0 -1 ------- null}
+ -t 0.29 -s 0 -d 1 -p cbr -e 100 -c 0 -i 38 -a 0 -x {0.0 2.0 38 ------- null}
- -t 0.29 -s 0 -d 1 -p cbr -e 100 -c 0 -i 38 -a 0 -x {0.0 2.0 38 ------- null}
h -t 0.29 -s 0 -d 1 -p cbr -e 100 -c 0 -i 38 -a 0 -x {0.0 2.0 -1 ------- null}
r -t 0.2908 -s 0 -d 1 -p cbr -e 100 -c 0 -i 28 -a 0 -x {0.0 2.0 28 ------- null}
+ -t 0.2908 -s 1 -d 2 -p cbr -e 100 -c 0 -i 28 -a 0 -x {0.0 2.0 28 ------- null}
r -t 0.2918 -s 1 -d 2 -p cbr -e 100 -c 0 -i 16 -a 0 -x {0.0 2.0 16 ------- null}
- -t 0.2948 -s 1 -d 2 -p cbr -e 100 -c 0 -i 18 -a 0 -x {0.0 2.0 18 ------- null}
h -t 0.2948 -s 1 -d 2 -p cbr -e 100 -c 0 -i 18 -a 0 -x {0.0 2.0 -1 ------- null}
+ -t 0.295 -s 0 -d 1 -p cbr -e 100 -c 0 -i 39 -a 0 -x {0.0 2.0 39 ------- null}
- -t 0.295 -s 0 -d 1 -p cbr -e 100 -c 0 -i 39 -a 0 -x {0.0 2.0 39 ------- null}
h -t 0.295 -s 0 -d 1 -p cbr -e 100 -c 0 -i 39 -a 0 -x {0.0 2.0 -1 ------- null}
r -t 0.2958 -s 0 -d 1 -p cbr -e 100 -c 0 -i 29 -a 0 -x {0.0 2.0 29 ------- null}
+ -t 0.2958 -s 1 -d 2 -p cbr -e 100 -c 0 -i 29 -a 0 -x {0.0 2.0 29 ------- null}
r -t 0.2998 -s 1 -d 2 -p cbr -e 100 -c 0 -i 17 -a 0 -x {0.0 2.0 17 ------- null}
+ -t 0.3 -s 0 -d 1 -p cbr -e 100 -c 0 -i 40 -a 0 -x {0.0 2.0 40 ------- null}
- -t 0.3 -s 0 -d 1 -p cbr -e 100 -c 0 -i 40 -a 0 -x {0.0 2.0 40 ------- null}
h -t 0.3 -s 0 -d 1 -p cbr -e 100 -c 0 -i 40 -a 0 -x {0.0 2.0 -1 ------- null}
r -t 0.3008 -s 0 -d 1 -p cbr -e 100 -c 0 -i 30 -a 0 -x {0.0 2.0 30 ------- null}
+ -t 0.3008 -s 1 -d 2 -p cbr -e 100 -c 0 -i 30 -a 0 -x {0.0 2.0 30 ------- null}
d -t 0.3008 -s 1 -d 2 -p cbr -e 100 -c 0 -i 30 -a 0 -x {0.0 2.0 30 ------- null}
- -t 0.3028 -s 1 -d 2 -p cbr -e 100 -c 0 -i 19 -a 0 -x {0.0 2.0 19 ------- null}
h -t 0.3028 -s 1 -d 2 -p cbr -e 100 -c 0 -i 19 -a 0 -x {0.0 2.0 -1 ------- null}
+ -t 0.305 -s 0 -d 1 -p cbr -e 100 -c 0 -i 41 -a 0 -x {0.0 2.0 41 ------- null}
- -t 0.305 -s 0 -d 1 -p cbr -e 100 -c 0 -i 41 -a 0 -x {0.0 2.0 41 ------- null}
h -t 0.305 -s 0 -d 1 -p cbr -e 100 -c 0 -i 41 -a 0 -x {0.0 2.0 -1 ------- null}
r -t 0.3058 -s 0 -d 1 -p cbr -e 100 -c 0 -i 31 -a 0 -x {0.0 2.0 31 ------- null}
+ -t 0.3058 -s 1 -d 2 -p cbr -e 100 -c 0 -i 31 -a 0 -x {0.0 2.0 31 ------- null}
r -t 0.3078 -s 1 -d 2 -p cbr -e 100 -c 0 -i 18 -a 0 -x {0.0 2.0 18 ------- null}
+ -t 0.31 -s 0 -d 1 -p cbr -e 100 -c 0 -i 42 -a 0 -x {0.0 2.0 42 ------- null}
- -t 0.31 -s 0 -d 1 -p cbr -e 100 -c 0 -i 42 -a 0 -x {0.0 2.0 42 ------- null}
h -t 0.31 -s 0 -d 1 -p cbr -e 100 -c 0 -i 42 -a 0 -x {0.0 2.0 -1 ------- null}
r -t 0.3108 -s 0 -d 1 -p cbr -e 100 -c 0 -i 32 -a 0 -x {0.0 2.0 32 ------- null}
+ -t 0.3108 -s 1 -d 2 -p cbr -e 100 -c 0 -i 32 -a 0 -x {0.0 2.0 32 ------- null}
d -t 0.3108 -s 1 -d 2 -p cbr -e 100 -c 0 -i 32 -a 0 -x {0.0 2.0 32 ------- null}
- -t 0.3108 -s 1 -d 2 -p cbr -e 100 -c 0 -i 20 -a 0 -x {0.0 2.0 20 ------- null}
h -t 0.3108 -s 1 -d 2 -p cbr -e 100 -c 0 -i 20 -a 0 -x {0.0 2.0 -1 ------- null}
+ -t 0.315 -s 0 -d 1 -p cbr -e 100 -c 0 -i 43 -a 0 -x {0.0 2.0 43 ------- null}
- -t 0.315 -s 0 -d 1 -p cbr -e 100 -c 0 -i 43 -a 0 -x {0.0 2.0 43 ------- null}
h -t 0.315 -s 0 -d 1 -p cbr -e 100 -c 0 -i 43 -a 0 -x {0.0 2.0 -1 ------- null}
r -t 0.3158 -s 0 -d 1 -p cbr -e 100 -c 0 -i 33 -a 0 -x {0.0 2.0 33 ------- null}
+ -t 0.3158 -s 1 -d 2 -p cbr -e 100 -c 0 -i 33 -a 0 -x {0.0 2.0 33 ------- null}
r -t 0.3158 -s 1 -d 2 -p cbr -e 100 -c 0 -i 19 -a 0 -x {0.0 2.0 19 ------- null}
- -t 0.3188 -s 1 -d 2 -p cbr -e 100 -c 0 -i 21 -a 0 -x {0.0 2.0 21 ------- null}
h -t 0.3188 -s 1 -d 2 -p cbr -e 100 -c 0 -i 21 -a 0 -x {0.0 2.0 -1 ------- null}
+ -t 0.32 -s 0 -d 1 -p cbr -e 100 -c 0 -i 44 -a 0 -x {0.0 2.0 44 ------- null}
- -t 0.32 -s 0 -d 1 -p cbr -e 100 -c 0 -i 44 -a 0 -x {0.0 2.0 44 ------- null}
h -t 0.32 -s 0 -d 1 -p cbr -e 100 -c 0 -i 44 -a 0 -x {0.0 2.0 -1 ------- null}
r -t 0.3208 -s 0 -d 1 -p cbr -e 100 -c 0 -i 34 -a 0 -x {0.0 2.0 34 ------- null}
+ -t 0.3208 -s 1 -d 2 -p cbr -e 100 -c 0 -i 34 -a 0 -x {0.0 2.0 34 ------- null}
r -t 0.3238 -s 1 -d 2 -p cbr -e 100 -c 0 -i 20 -a 0 -x {0.0 2.0 20 ------- null}
+ -t 0.325 -s 0 -d 1 -p cbr -e 100 -c 0 -i 45 -a 0 -x {0.0 2.0 45 ------- null}
- -t 0.325 -s 0 -d 1 -p cbr -e 100 -c 0 -i 45 -a 0 -x {0.0 2.0 45 ------- null}
h -t 0.325 -s 0 -d 1 -p cbr -e 100 -c 0 -i 45 -a 0 -x {0.0 2.0 -1 ------- null}
r -t 0.3258 -s 0 -d 1 -p cbr -e 100 -c 0 -i 35 -a 0 -x {0.0 2.0 35 ------- null}
+ -t 0.3258 -s 1 -d 2 -p cbr -e 100 -c 0 -i 35 -a 0 -x {0.0 2.0 35 ------- null}
d -t 0.3258 -s 1 -d 2 -p cbr -e 100 -c 0 -i 35 -a 0 -x {0.0 2.0 35 ------- null}
- -t 0.3268 -s 1 -d 2 -p cbr -e 100 -c 0 -i 22 -a 0 -x {0.0 2.0 22 ------- null}
h -t 0.3268 -s 1 -d 2 -p cbr -e 100 -c 0 -i 22 -a 0 -x {0.0 2.0 -1 ------- null}
+ -t 0.33 -s 0 -d 1 -p cbr -e 100 -c 0 -i 46 -a 0 -x {0.0 2.0 46 ------- null}
- -t 0.33 -s 0 -d 1 -p cbr -e 100 -c 0 -i 46 -a 0 -x {0.0 2.0 46 ------- null}
h -t 0.33 -s 0 -d 1 -p cbr -e 100 -c 0 -i 46 -a 0 -x {0.0 2.0 -1 ------- null}
r -t 0.3308 -s 0 -d 1 -p cbr -e 100 -c 0 -i 36 -a 0 -x {0.0 2.0 36 ------- null}
+ -t 0.3308 -s 1 -d 2 -p cbr -e 100 -c 0 -i 36 -a 0 -x {0.0 2.0 36 ------- null}
r -t 0.3318 -s 1 -d 2 -p cbr -e 100 -c 0 -i 21 -a 0 -x {0.0 2.0 21 ------- null}
- -t 0.3348 -s 1 -d 2 -p cbr -e 100 -c 0 -i 23 -a 0 -x {0.0 2.0 23 ------- null}
h -t 0.3348 -s 1 -d 2 -p cbr -e 100 -c 0 -i 23 -a 0 -x {0.0 2.0 -1 ------- null}
+ -t 0.335 -s 0 -d 1 -p cbr -e 100 -c 0 -i 47 -a 0 -x {0.0 2.0 47 ------- null}
- -t 0.335 -s 0 -d 1 -p cbr -e 100 -c 0 -i 47 -a 0 -x {0.0 2.0 47 ------- null}
h -t 0.335 -s 0 -d 1 -p cbr -e 100 -c 0 -i 47 -a 0 -x {0.0 2.0 -1 ------- null}
r -t 0.3358 -s 0 -d 1 -p cbr -e 100 -c 0 -i 37 -a 0 -x {0.0 2.0 37 ------- null}
+ -t 0.3358 -s 1 -d 2 -p cbr -e 100 -c 0 -i 37 -a 0 -x {0.0 2.0 37 ------- null}
r -t 0.3398 -s 1 -d 2 -p cbr -e 100 -c 0 -i 22 -a 0 -x {0.0 2.0 22 ------- null}
+ -t 0.34 -s 0 -d 1 -p cbr -e 100 -c 0 -i 48 -a 0 -x {0.0 2.0 48 ------- null}
- -t 0.34 -s 0 -d 1 -p cbr -e 100 -c 0 -i 48 -a 0 -x {0.0 2.0 48 ------- null}
h -t 0.34 -s 0 -d 1 -p cbr -e 100 -c 0 -i 48 -a 0 -x {0.0 2.0 -1 ------- null}
r -t 0.3408 -s 0 -d 1 -p cbr -e 100 -c 0 -i 38 -a 0 -x {0.0 2.0 38 ------- null}
+ -t 0.3408 -s 1 -d 2 -p cbr -e 100 -c 0 -i 38 -a 0 -x {0.0 2.0 38 ------- null}
d -t 0.3408 -s 1 -d 2 -p cbr -e 100 -c 0 -i 38 -a 0 -x {0.0 2.0 38 ------- null}
- -t 0.3428 -s 1 -d 2 -p cbr -e 100 -c 0 -i 25 -a 0 -x {0.0 2.0 25 ------- null}
h -t 0.3428 -s 1 -d 2 -p cbr -e 100 -c 0 -i 25 -a 0 -x {0.0 2.0 -1 ------- null}
+ -t 0.345 -s 0 -d 1 -p cbr -e 100 -c 0 -i 49 -a 0 -x {0.0 2.0 49 ------- null}
- -t 0.345 -s 0 -d 1 -p cbr -e 100 -c 0 -i 49 -a 0 -x {0.0 2.0 49 ------- null}
h -t 0.345 -s 0 -d 1 -p cbr -e 100 -c 0 -i 49 -a 0 -x {0.0 2.0 -1 ------- null}
r -t 0.3458 -s 0 -d 1 -p cbr -e 100 -c 0 -i 39 -a 0 -x {0.0 2.0 39 ------- null}
+ -t 0.3458 -s 1 -d 2 -p cbr -e 100 -c 0 -i 39 -a 0 -x {0.0 2.0 39 ------- null}
r -t 0.3478 -s 1 -d 2 -p cbr -e 100 -c 0 -i 23 -a 0 -x {0.0 2.0 23 ------- null}
+ -t 0.35 -s 0 -d 1 -p cbr -e 100 -c 0 -i 50 -a 0 -x {0.0 2.0 50 ------- null}
- -t 0.35 -s 0 -d 1 -p cbr -e 100 -c 0 -i 50 -a 0 -x {0.0 2.0 50 ------- null}
h -t 0.35 -s 0 -d 1 -p cbr -e 100 -c 0 -i 50 -a 0 -x {0.0 2.0 -1 ------- null}
r -t 0.3508 -s 0 -d 1 -p cbr -e 100 -c 0 -i 40 -a 0 -x {0.0 2.0 40 ------- null}
+ -t 0.3508 -s 1 -d 2 -p cbr -e 100 -c 0 -i 40 -a 0 -x {0.0 2.0 40 ------- null}
d -t 0.3508 -s 1 -d 2 -p cbr -e 100 -c 0 -i 40 -a 0 -x {0.0 2.0 40 ------- null}
- -t 0.3508 -s 1 -d 2 -p cbr -e 100 -c 0 -i 26 -a 0 -x {0.0 2.0 26 ------- null}
h -t 0.3508 -s 1 -d 2 -p cbr -e 100 -c 0 -i 26 -a 0 -x {0.0 2.0 -1 ------- null}
+ -t 0.355 -s 0 -d 1 -p cbr -e 100 -c 0 -i 51 -a 0 -x {0.0 2.0 51 ------- null}
- -t 0.355 -s 0 -d 1 -p cbr -e 100 -c 0 -i 51 -a 0 -x {0.0 2.0 51 ------- null}
h -t 0.355 -s 0 -d 1 -p cbr -e 100 -c 0 -i 51 -a 0 -x {0.0 2.0 -1 ------- null}
r -t 0.3558 -s 0 -d 1 -p cbr -e 100 -c 0 -i 41 -a 0 -x {0.0 2.0 41 ------- null}
+ -t 0.3558 -s 1 -d 2 -p cbr -e 100 -c 0 -i 41 -a 0 -x {0.0 2.0 41 ------- null}
r -t 0.3558 -s 1 -d 2 -p cbr -e 100 -c 0 -i 25 -a 0 -x {0.0 2.0 25 ------- null}
- -t 0.3588 -s 1 -d 2 -p cbr -e 100 -c 0 -i 28 -a 0 -x {0.0 2.0 28 ------- null}
h -t 0.3588 -s 1 -d 2 -p cbr -e 100 -c 0 -i 28 -a 0 -x {0.0 2.0 -1 ------- null}
+ -t 0.36 -s 0 -d 1 -p cbr -e 100 -c 0 -i 52 -a 0 -x {0.0 2.0 52 ------- null}
- -t 0.36 -s 0 -d 1 -p cbr -e 100 -c 0 -i 52 -a 0 -x {0.0 2.0 52 ------- null}
h -t 0.36 -s 0 -d 1 -p cbr -e 100 -c 0 -i 52 -a 0 -x {0.0 2.0 -1 ------- null}
r -t 0.3608 -s 0 -d 1 -p cbr -e 100 -c 0 -i 42 -a 0 -x {0.0 2.0 42 ------- null}
+ -t 0.3608 -s 1 -d 2 -p cbr -e 100 -c 0 -i 42 -a 0 -x {0.0 2.0 42 ------- null}
r -t 0.3638 -s 1 -d 2 -p cbr -e 100 -c 0 -i 26 -a 0 -x {0.0 2.0 26 ------- null}
+ -t 0.365 -s 0 -d 1 -p cbr -e 100 -c 0 -i 53 -a 0 -x {0.0 2.0 53 ------- null}
- -t 0.365 -s 0 -d 1 -p cbr -e 100 -c 0 -i 53 -a 0 -x {0.0 2.0 53 ------- null}
h -t 0.365 -s 0 -d 1 -p cbr -e 100 -c 0 -i 53 -a 0 -x {0.0 2.0 -1 ------- null}
r -t 0.3658 -s 0 -d 1 -p cbr -e 100 -c 0 -i 43 -a 0 -x {0.0 2.0 43 ------- null}
+ -t 0.3658 -s 1 -d 2 -p cbr -e 100 -c 0 -i 43 -a 0 -x {0.0 2.0 43 ------- null}
d -t 0.3658 -s 1 -d 2 -p cbr -e 100 -c 0 -i 43 -a 0 -x {0.0 2.0 43 ------- null}
- -t 0.3668 -s 1 -d 2 -p cbr -e 100 -c 0 -i 29 -a 0 -x {0.0 2.0 29 ------- null}
h -t 0.3668 -s 1 -d 2 -p cbr -e 100 -c 0 -i 29 -a 0 -x {0.0 2.0 -1 ------- null}
+ -t 0.37 -s 0 -d 1 -p cbr -e 100 -c 0 -i 54 -a 0 -x {0.0 2.0 54 ------- null}
- -t 0.37 -s 0 -d 1 -p cbr -e 100 -c 0 -i 54 -a 0 -x {0.0 2.0 54 ------- null}
h -t 0.37 -s 0 -d 1 -p cbr -e 100 -c 0 -i 54 -a 0 -x {0.0 2.0 -1 ------- null}
r -t 0.3708 -s 0 -d 1 -p cbr -e 100 -c 0 -i 44 -a 0 -x {0.0 2.0 44 ------- null}
+ -t 0.3708 -s 1 -d 2 -p cbr -e 100 -c 0 -i 44 -a 0 -x {0.0 2.0 44 ------- null}
r -t 0.3718 -s 1 -d 2 -p cbr -e 100 -c 0 -i 28 -a 0 -x {0.0 2.0 28 ------- null}
- -t 0.3748 -s 1 -d 2 -p cbr -e 100 -c 0 -i 31 -a 0 -x {0.0 2.0 31 ------- null}
h -t 0.3748 -s 1 -d 2 -p cbr -e 100 -c 0 -i 31 -a 0 -x {0.0 2.0 -1 ------- null}
+ -t 0.375 -s 0 -d 1 -p cbr -e 100 -c 0 -i 55 -a 0 -x {0.0 2.0 55 ------- null}
- -t 0.375 -s 0 -d 1 -p cbr -e 100 -c 0 -i 55 -a 0 -x {0.0 2.0 55 ------- null}
h -t 0.375 -s 0 -d 1 -p cbr -e 100 -c 0 -i 55 -a 0 -x {0.0 2.0 -1 ------- null}
r -t 0.3758 -s 0 -d 1 -p cbr -e 100 -c 0 -i 45 -a 0 -x {0.0 2.0 45 ------- null}
+ -t 0.3758 -s 1 -d 2 -p cbr -e 100 -c 0 -i 45 -a 0 -x {0.0 2.0 45 ------- null}
r -t 0.3798 -s 1 -d 2 -p cbr -e 100 -c 0 -i 29 -a 0 -x {0.0 2.0 29 ------- null}
+ -t 0.38 -s 0 -d 1 -p cbr -e 100 -c 0 -i 56 -a 0 -x {0.0 2.0 56 ------- null}
- -t 0.38 -s 0 -d 1 -p cbr -e 100 -c 0 -i 56 -a 0 -x {0.0 2.0 56 ------- null}
h -t 0.38 -s 0 -d 1 -p cbr -e 100 -c 0 -i 56 -a 0 -x {0.0 2.0 -1 ------- null}
r -t 0.3808 -s 0 -d 1 -p cbr -e 100 -c 0 -i 46 -a 0 -x {0.0 2.0 46 ------- null}
+ -t 0.3808 -s 1 -d 2 -p cbr -e 100 -c 0 -i 46 -a 0 -x {0.0 2.0 46 ------- null}
d -t 0.3808 -s 1 -d 2 -p cbr -e 100 -c 0 -i 46 -a 0 -x {0.0 2.0 46 ------- null}
- -t 0.3828 -s 1 -d 2 -p cbr -e 100 -c 0 -i 33 -a 0 -x {0.0 2.0 33 ------- null}
h -t 0.3828 -s 1 -d 2 -p cbr -e 100 -c 0 -i 33 -a 0 -x {0.0 2.0 -1 ------- null}
+ -t 0.385 -s 0 -d 1 -p cbr -e 100 -c 0 -i 57 -a 0 -x {0.0 2.0 57 ------- null}
- -t 0.385 -s 0 -d 1 -p cbr -e 100 -c 0 -i 57 -a 0 -x {0.0 2.0 57 ------- null}
h -t 0.385 -s 0 -d 1 -p cbr -e 100 -c 0 -i 57 -a 0 -x {0.0 2.0 -1 ------- null}
r -t 0.3858 -s 0 -d 1 -p cbr -e 100 -c 0 -i 47 -a 0 -x {0.0 2.0 47 ------- null}
+ -t 0.3858 -s 1 -d 2 -p cbr -e 100 -c 0 -i 47 -a 0 -x {0.0 2.0 47 ------- null}
r -t 0.3878 -s 1 -d 2 -p cbr -e 100 -c 0 -i 31 -a 0 -x {0.0 2.0 31 ------- null}
+ -t 0.39 -s 0 -d 1 -p cbr -e 100 -c 0 -i 58 -a 0 -x {0.0 2.0 58 ------- null}