+ 0.1 0 1 cbr 25 ------- 0 0.0 2.0 0 0
- 0.1 0 1 cbr 25 ------- 0 0.0 2.0 0 0
+ 0.105 0 1 cbr 25 ------- 0 0.0 2.0 1 1
- 0.105 0 1 cbr 25 ------- 0 0.0 2.0 1 1
+ 0.11 0 1 cbr 25 ------- 0 0.0 2.0 2 2
- 0.11 0 1 cbr 25 ------- 0 0.0 2.0 2 2
+ 0.115 0 1 cbr 25 ------- 0 0.0 2.0 3 3
- 0.115 0 1 cbr 25 ------- 0 0.0 2.0 3 3
+ 0.12 0 1 cbr 25 ------- 0 0.0 2.0 4 4
- 0.12 0 1 cbr 25 ------- 0 0.0 2.0 4 4
+ 0.125 0 1 cbr 25 ------- 0 0.0 2.0 5 5
- 0.125 0 1 cbr 25 ------- 0 0.0 2.0 5 5
+ 0.13 0 1 cbr 25 ------- 0 0.0 2.0 6 6
- 0.13 0 1 cbr 25 ------- 0 0.0 2.0 6 6
+ 0.135 0 1 cbr 25 ------- 0 0.0 2.0 7 7
- 0.135 0 1 cbr 25 ------- 0 0.0 2.0 7 7
+ 0.14 0 1 cbr 25 ------- 0 0.0 2.0 8 8
- 0.14 0 1 cbr 25 ------- 0 0.0 2.0 8 8
+ 0.145 0 1 cbr 25 ------- 0 0.0 2.0 9 9
- 0.145 0 1 cbr 25 ------- 0 0.0 2.0 9 9
+ 0.15 0 1 cbr 25 ------- 0 0.0 2.0 10 10
- 0.15 0 1 cbr 25 ------- 0 0.0 2.0 10 10
r 0.1502 0 1 cbr 25 ------- 0 0.0 2.0 0 0
+ 0.1502 1 2 cbr 25 ------- 0 0.0 2.0 0 0
- 0.1502 1 2 cbr 25 ------- 0 0.0 2.0 0 0
+ 0.155 0 1 cbr 25 ------- 0 0.0 2.0 11 11
- 0.155 0 1 cbr 25 ------- 0 0.0 2.0 11 11
r 0.1552 0 1 cbr 25 ------- 0 0.0 2.0 1 1
+ 0.1552 1 2 cbr 25 ------- 0 0.0 2.0 1 1
- 0.1552 1 2 cbr 25 ------- 0 0.0 2.0 1 1
r 0.1572 1 2 cbr 25 ------- 0 0.0 2.0 0 0
+ 0.16 0 1 cbr 25 ------- 0 0.0 2.0 12 12
- 0.16 0 1 cbr 25 ------- 0 0.0 2.0 12 12
r 0.1602 0 1 cbr 25 ------- 0 0.0 2.0 2 2
+ 0.1602 1 2 cbr 25 ------- 0 0.0 2.0 2 2
- 0.1602 1 2 cbr 25 ------- 0 0.0 2.0 2 2
r 0.1622 1 2 cbr 25 ------- 0 0.0 2.0 1 1
+ 0.165 0 1 cbr 25 ------- 0 0.0 2.0 13 13
- 0.165 0 1 cbr 25 ------- 0 0.0 2.0 13 13
r 0.1652 0 1 cbr 25 ------- 0 0.0 2.0 3 3
+ 0.1652 1 2 cbr 25 ------- 0 0.0 2.0 3 3
- 0.1652 1 2 cbr 25 ------- 0 0.0 2.0 3 3
r 0.1672 1 2 cbr 25 ------- 0 0.0 2.0 2 2
+ 0.17 0 1 cbr 25 ------- 0 0.0 2.0 14 14
- 0.17 0 1 cbr 25 ------- 0 0.0 2.0 14 14
r 0.1702 0 1 cbr 25 ------- 0 0.0 2.0 4 4
+ 0.1702 1 2 cbr 25 ------- 0 0.0 2.0 4 4
- 0.1702 1 2 cbr 25 ------- 0 0.0 2.0 4 4
r 0.1722 1 2 cbr 25 ------- 0 0.0 2.0 3 3
+ 0.175 0 1 cbr 25 ------- 0 0.0 2.0 15 15
- 0.175 0 1 cbr 25 ------- 0 0.0 2.0 15 15
r 0.1752 0 1 cbr 25 ------- 0 0.0 2.0 5 5
+ 0.1752 1 2 cbr 25 ------- 0 0.0 2.0 5 5
- 0.1752 1 2 cbr 25 ------- 0 0.0 2.0 5 5
r 0.1772 1 2 cbr 25 ------- 0 0.0 2.0 4 4
+ 0.18 0 1 cbr 25 ------- 0 0.0 2.0 16 16
- 0.18 0 1 cbr 25 ------- 0 0.0 2.0 16 16
r 0.1802 0 1 cbr 25 ------- 0 0.0 2.0 6 6
+ 0.1802 1 2 cbr 25 ------- 0 0.0 2.0 6 6
- 0.1802 1 2 cbr 25 ------- 0 0.0 2.0 6 6
r 0.1822 1 2 cbr 25 ------- 0 0.0 2.0 5 5
+ 0.185 0 1 cbr 25 ------- 0 0.0 2.0 17 17
- 0.185 0 1 cbr 25 ------- 0 0.0 2.0 17 17
r 0.1852 0 1 cbr 25 ------- 0 0.0 2.0 7 7
+ 0.1852 1 2 cbr 25 ------- 0 0.0 2.0 7 7
- 0.1852 1 2 cbr 25 ------- 0 0.0 2.0 7 7
r 0.1872 1 2 cbr 25 ------- 0 0.0 2.0 6 6
+ 0.19 0 1 cbr 25 ------- 0 0.0 2.0 18 18
- 0.19 0 1 cbr 25 ------- 0 0.0 2.0 18 18
r 0.1902 0 1 cbr 25 ------- 0 0.0 2.0 8 8
+ 0.1902 1 2 cbr 25 ------- 0 0.0 2.0 8 8
- 0.1902 1 2 cbr 25 ------- 0 0.0 2.0 8 8
r 0.1922 1 2 cbr 25 ------- 0 0.0 2.0 7 7
+ 0.195 0 1 cbr 25 ------- 0 0.0 2.0 19 19
- 0.195 0 1 cbr 25 ------- 0 0.0 2.0 19 19
r 0.1952 0 1 cbr 25 ------- 0 0.0 2.0 9 9
+ 0.1952 1 2 cbr 25 ------- 0 0.0 2.0 9 9
- 0.1952 1 2 cbr 25 ------- 0 0.0 2.0 9 9
r 0.1972 1 2 cbr 25 ------- 0 0.0 2.0 8 8
+ 0.2 0 1 cbr 25 ------- 0 0.0 2.0 20 20
- 0.2 0 1 cbr 25 ------- 0 0.0 2.0 20 20
r 0.2002 0 1 cbr 25 ------- 0 0.0 2.0 10 10
+ 0.2002 1 2 cbr 25 ------- 0 0.0 2.0 10 10
- 0.2002 1 2 cbr 25 ------- 0 0.0 2.0 10 10
r 0.2022 1 2 cbr 25 ------- 0 0.0 2.0 9 9
+ 0.205 0 1 cbr 25 ------- 0 0.0 2.0 21 21
- 0.205 0 1 cbr 25 ------- 0 0.0 2.0 21 21
r 0.2052 0 1 cbr 25 ------- 0 0.0 2.0 11 11
+ 0.2052 1 2 cbr 25 ------- 0 0.0 2.0 11 11
- 0.2052 1 2 cbr 25 ------- 0 0.0 2.0 11 11
r 0.2072 1 2 cbr 25 ------- 0 0.0 2.0 10 10
+ 0.21 0 1 cbr 25 ------- 0 0.0 2.0 22 22
- 0.21 0 1 cbr 25 ------- 0 0.0 2.0 22 22
r 0.2102 0 1 cbr 25 ------- 0 0.0 2.0 12 12
+ 0.2102 1 2 cbr 25 ------- 0 0.0 2.0 12 12
- 0.2102 1 2 cbr 25 ------- 0 0.0 2.0 12 12
r 0.2122 1 2 cbr 25 ------- 0 0.0 2.0 11 11
+ 0.215 0 1 cbr 25 ------- 0 0.0 2.0 23 23
- 0.215 0 1 cbr 25 ------- 0 0.0 2.0 23 23
r 0.2152 0 1 cbr 25 ------- 0 0.0 2.0 13 13
+ 0.2152 1 2 cbr 25 ------- 0 0.0 2.0 13 13
- 0.2152 1 2 cbr 25 ------- 0 0.0 2.0 13 13
r 0.2172 1 2 cbr 25 ------- 0 0.0 2.0 12 12
+ 0.22 0 1 cbr 25 ------- 0 0.0 2.0 24 24
- 0.22 0 1 cbr 25 ------- 0 0.0 2.0 24 24
r 0.2202 0 1 cbr 25 ------- 0 0.0 2.0 14 14
+ 0.2202 1 2 cbr 25 ------- 0 0.0 2.0 14 14
- 0.2202 1 2 cbr 25 ------- 0 0.0 2.0 14 14
r 0.2222 1 2 cbr 25 ------- 0 0.0 2.0 13 13
+ 0.225 0 1 cbr 25 ------- 0 0.0 2.0 25 25
- 0.225 0 1 cbr 25 ------- 0 0.0 2.0 25 25
r 0.2252 0 1 cbr 25 ------- 0 0.0 2.0 15 15
+ 0.2252 1 2 cbr 25 ------- 0 0.0 2.0 15 15
- 0.2252 1 2 cbr 25 ------- 0 0.0 2.0 15 15
r 0.2272 1 2 cbr 25 ------- 0 0.0 2.0 14 14
+ 0.23 0 1 cbr 25 ------- 0 0.0 2.0 26 26
- 0.23 0 1 cbr 25 ------- 0 0.0 2.0 26 26
r 0.2302 0 1 cbr 25 ------- 0 0.0 2.0 16 16
+ 0.2302 1 2 cbr 25 ------- 0 0.0 2.0 16 16
- 0.2302 1 2 cbr 25 ------- 0 0.0 2.0 16 16
r 0.2322 1 2 cbr 25 ------- 0 0.0 2.0 15 15
+ 0.235 0 1 cbr 25 ------- 0 0.0 2.0 27 27
- 0.235 0 1 cbr 25 ------- 0 0.0 2.0 27 27
r 0.2352 0 1 cbr 25 ------- 0 0.0 2.0 17 17
+ 0.2352 1 2 cbr 25 ------- 0 0.0 2.0 17 17
- 0.2352 1 2 cbr 25 ------- 0 0.0 2.0 17 17
r 0.2372 1 2 cbr 25 ------- 0 0.0 2.0 16 16
+ 0.24 0 1 cbr 25 ------- 0 0.0 2.0 28 28
- 0.24 0 1 cbr 25 ------- 0 0.0 2.0 28 28
r 0.2402 0 1 cbr 25 ------- 0 0.0 2.0 18 18
+ 0.2402 1 2 cbr 25 ------- 0 0.0 2.0 18 18
- 0.2402 1 2 cbr 25 ------- 0 0.0 2.0 18 18
r 0.2422 1 2 cbr 25 ------- 0 0.0 2.0 17 17
+ 0.245 0 1 cbr 25 ------- 0 0.0 2.0 29 29
- 0.245 0 1 cbr 25 ------- 0 0.0 2.0 29 29
r 0.2452 0 1 cbr 25 ------- 0 0.0 2.0 19 19
+ 0.2452 1 2 cbr 25 ------- 0 0.0 2.0 19 19
- 0.2452 1 2 cbr 25 ------- 0 0.0 2.0 19 19
r 0.2472 1 2 cbr 25 ------- 0 0.0 2.0 18 18
+ 0.25 0 1 cbr 25 ------- 0 0.0 2.0 30 30
- 0.25 0 1 cbr 25 ------- 0 0.0 2.0 30 30
r 0.2502 0 1 cbr 25 ------- 0 0.0 2.0 20 20
+ 0.2502 1 2 cbr 25 ------- 0 0.0 2.0 20 20
- 0.2502 1 2 cbr 25 ------- 0 0.0 2.0 20 20
r 0.2522 1 2 cbr 25 ------- 0 0.0 2.0 19 19
+ 0.255 0 1 cbr 25 ------- 0 0.0 2.0 31 31
- 0.255 0 1 cbr 25 ------- 0 0.0 2.0 31 31
r 0.2552 0 1 cbr 25 ------- 0 0.0 2.0 21 21
+ 0.2552 1 2 cbr 25 ------- 0 0.0 2.0 21 21
- 0.2552 1 2 cbr 25 ------- 0 0.0 2.0 21 21
r 0.2572 1 2 cbr 25 ------- 0 0.0 2.0 20 20
+ 0.26 0 1 cbr 25 ------- 0 0.0 2.0 32 32
- 0.26 0 1 cbr 25 ------- 0 0.0 2.0 32 32
r 0.2602 0 1 cbr 25 ------- 0 0.0 2.0 22 22
+ 0.2602 1 2 cbr 25 ------- 0 0.0 2.0 22 22
- 0.2602 1 2 cbr 25 ------- 0 0.0 2.0 22 22
r 0.2622 1 2 cbr 25 ------- 0 0.0 2.0 21 21
+ 0.265 0 1 cbr 25 ------- 0 0.0 2.0 33 33
- 0.265 0 1 cbr 25 ------- 0 0.0 2.0 33 33
r 0.2652 0 1 cbr 25 ------- 0 0.0 2.0 23 23
+ 0.2652 1 2 cbr 25 ------- 0 0.0 2.0 23 23
- 0.2652 1 2 cbr 25 ------- 0 0.0 2.0 23 23
r 0.2672 1 2 cbr 25 ------- 0 0.0 2.0 22 22
+ 0.27 0 1 cbr 25 ------- 0 0.0 2.0 34 34
- 0.27 0 1 cbr 25 ------- 0 0.0 2.0 34 34
r 0.2702 0 1 cbr 25 ------- 0 0.0 2.0 24 24
+ 0.2702 1 2 cbr 25 ------- 0 0.0 2.0 24 24
- 0.2702 1 2 cbr 25 ------- 0 0.0 2.0 24 24
r 0.2722 1 2 cbr 25 ------- 0 0.0 2.0 23 23
+ 0.275 0 1 cbr 25 ------- 0 0.0 2.0 35 35
- 0.275 0 1 cbr 25 ------- 0 0.0 2.0 35 35
r 0.2752 0 1 cbr 25 ------- 0 0.0 2.0 25 25
+ 0.2752 1 2 cbr 25 ------- 0 0.0 2.0 25 25
- 0.2752 1 2 cbr 25 ------- 0 0.0 2.0 25 25
r 0.2772 1 2 cbr 25 ------- 0 0.0 2.0 24 24
+ 0.28 0 1 cbr 25 ------- 0 0.0 2.0 36 36
- 0.28 0 1 cbr 25 ------- 0 0.0 2.0 36 36
r 0.2802 0 1 cbr 25 ------- 0 0.0 2.0 26 26
+ 0.2802 1 2 cbr 25 ------- 0 0.0 2.0 26 26
- 0.2802 1 2 cbr 25 ------- 0 0.0 2.0 26 26
r 0.2822 1 2 cbr 25 ------- 0 0.0 2.0 25 25
+ 0.285 0 1 cbr 25 ------- 0 0.0 2.0 37 37
- 0.285 0 1 cbr 25 ------- 0 0.0 2.0 37 37
r 0.2852 0 1 cbr 25 ------- 0 0.0 2.0 27 27
+ 0.2852 1 2 cbr 25 ------- 0 0.0 2.0 27 27
- 0.2852 1 2 cbr 25 ------- 0 0.0 2.0 27 27
r 0.2872 1 2 cbr 25 ------- 0 0.0 2.0 26 26
+ 0.29 0 1 cbr 25 ------- 0 0.0 2.0 38 38
- 0.29 0 1 cbr 25 ------- 0 0.0 2.0 38 38
r 0.2902 0 1 cbr 25 ------- 0 0.0 2.0 28 28
+ 0.2902 1 2 cbr 25 ------- 0 0.0 2.0 28 28
- 0.2902 1 2 cbr 25 ------- 0 0.0 2.0 28 28
r 0.2922 1 2 cbr 25 ------- 0 0.0 2.0 27 27
+ 0.295 0 1 cbr 25 ------- 0 0.0 2.0 39 39
- 0.295 0 1 cbr 25 ------- 0 0.0 2.0 39 39
r 0.2952 0 1 cbr 25 ------- 0 0.0 2.0 29 29
+ 0.2952 1 2 cbr 25 ------- 0 0.0 2.0 29 29
- 0.2952 1 2 cbr 25 ------- 0 0.0 2.0 29 29
r 0.2972 1 2 cbr 25 ------- 0 0.0 2.0 28 28
+ 0.3 0 1 cbr 25 ------- 0 0.0 2.0 40 40
- 0.3 0 1 cbr 25 ------- 0 0.0 2.0 40 40
r 0.3002 0 1 cbr 25 ------- 0 0.0 2.0 30 30
+ 0.3002 1 2 cbr 25 ------- 0 0.0 2.0 30 30
- 0.3002 1 2 cbr 25 ------- 0 0.0 2.0 30 30
r 0.3022 1 2 cbr 25 ------- 0 0.0 2.0 29 29
+ 0.305 0 1 cbr 25 ------- 0 0.0 2.0 41 41
- 0.305 0 1 cbr 25 ------- 0 0.0 2.0 41 41
r 0.3052 0 1 cbr 25 ------- 0 0.0 2.0 31 31
+ 0.3052 1 2 cbr 25 ------- 0 0.0 2.0 31 31
- 0.3052 1 2 cbr 25 ------- 0 0.0 2.0 31 31
r 0.3072 1 2 cbr 25 ------- 0 0.0 2.0 30 30
+ 0.31 0 1 cbr 25 ------- 0 0.0 2.0 42 42
- 0.31 0 1 cbr 25 ------- 0 0.0 2.0 42 42
r 0.3102 0 1 cbr 25 ------- 0 0.0 2.0 32 32
+ 0.3102 1 2 cbr 25 ------- 0 0.0 2.0 32 32
- 0.3102 1 2 cbr 25 ------- 0 0.0 2.0 32 32
r 0.3122 1 2 cbr 25 ------- 0 0.0 2.0 31 31
+ 0.315 0 1 cbr 25 ------- 0 0.0 2.0 43 43
- 0.315 0 1 cbr 25 ------- 0 0.0 2.0 43 43
r 0.3152 0 1 cbr 25 ------- 0 0.0 2.0 33 33
+ 0.3152 1 2 cbr 25 ------- 0 0.0 2.0 33 33
- 0.3152 1 2 cbr 25 ------- 0 0.0 2.0 33 33
r 0.3172 1 2 cbr 25 ------- 0 0.0 2.0 32 32
+ 0.32 0 1 cbr 25 ------- 0 0.0 2.0 44 44
- 0.32 0 1 cbr 25 ------- 0 0.0 2.0 44 44
r 0.3202 0 1 cbr 25 ------- 0 0.0 2.0 34 34
+ 0.3202 1 2 cbr 25 ------- 0 0.0 2.0 34 34
- 0.3202 1 2 cbr 25 ------- 0 0.0 2.0 34 34
r 0.3222 1 2 cbr 25 ------- 0 0.0 2.0 33 33
+ 0.325 0 1 cbr 25 ------- 0 0.0 2.0 45 45
- 0.325 0 1 cbr 25 ------- 0 0.0 2.0 45 45
r 0.3252 0 1 cbr 25 ------- 0 0.0 2.0 35 35
+ 0.3252 1 2 cbr 25 ------- 0 0.0 2.0 35 35
- 0.3252 1 2 cbr 25 ------- 0 0.0 2.0 35 35
r 0.3272 1 2 cbr 25 ------- 0 0.0 2.0 34 34
+ 0.33 0 1 cbr 25 ------- 0 0.0 2.0 46 46
- 0.33 0 1 cbr 25 ------- 0 0.0 2.0 46 46
r 0.3302 0 1 cbr 25 ------- 0 0.0 2.0 36 36
+ 0.3302 1 2 cbr 25 ------- 0 0.0 2.0 36 36
- 0.3302 1 2 cbr 25 ------- 0 0.0 2.0 36 36
r 0.3322 1 2 cbr 25 ------- 0 0.0 2.0 35 35
+ 0.335 0 1 cbr 25 ------- 0 0.0 2.0 47 47
- 0.335 0 1 cbr 25 ------- 0 0.0 2.0 47 47
r 0.3352 0 1 cbr 25 ------- 0 0.0 2.0 37 37
+ 0.3352 1 2 cbr 25 ------- 0 0.0 2.0 37 37
- 0.3352 1 2 cbr 25 ------- 0 0.0 2.0 37 37
r 0.3372 1 2 cbr 25 ------- 0 0.0 2.0 36 36
+ 0.34 0 1 cbr 25 ------- 0 0.0 2.0 48 48
- 0.34 0 1 cbr 25 ------- 0 0.0 2.0 48 48
r 0.3402 0 1 cbr 25 ------- 0 0.0 2.0 38 38
+ 0.3402 1 2 cbr 25 ------- 0 0.0 2.0 38 38
- 0.3402 1 2 cbr 25 ------- 0 0.0 2.0 38 38
r 0.3422 1 2 cbr 25 ------- 0 0.0 2.0 37 37
+ 0.345 0 1 cbr 25 ------- 0 0.0 2.0 49 49
- 0.345 0 1 cbr 25 ------- 0 0.0 2.0 49 49
r 0.3452 0 1 cbr 25 ------- 0 0.0 2.0 39 39
+ 0.3452 1 2 cbr 25 ------- 0 0.0 2.0 39 39
- 0.3452 1 2 cbr 25 ------- 0 0.0 2.0 39 39
r 0.3472 1 2 cbr 25 ------- 0 0.0 2.0 38 38
+ 0.35 0 1 cbr 25 ------- 0 0.0 2.0 50 50
- 0.35 0 1 cbr 25 ------- 0 0.0 2.0 50 50
r 0.3502 0 1 cbr 25 ------- 0 0.0 2.0 40 40
+ 0.3502 1 2 cbr 25 ------- 0 0.0 2.0 40 40
- 0.3502 1 2 cbr 25 ------- 0 0.0 2.0 40 40
r 0.3522 1 2 cbr 25 ------- 0 0.0 2.0 39 39
+ 0.355 0 1 cbr 25 ------- 0 0.0 2.0 51 51
- 0.355 0 1 cbr 25 ------- 0 0.0 2.0 51 51
r 0.3552 0 1 cbr 25 ------- 0 0.0 2.0 41 41
+ 0.3552 1 2 cbr 25 ------- 0 0.0 2.0 41 41
- 0.3552 1 2 cbr 25 ------- 0 0.0 2.0 41 41
r 0.3572 1 2 cbr 25 ------- 0 0.0 2.0 40 40
+ 0.36 0 1 cbr 25 ------- 0 0.0 2.0 52 52
- 0.36 0 1 cbr 25 ------- 0 0.0 2.0 52 52
r 0.3602 0 1 cbr 25 ------- 0 0.0 2.0 42 42
+ 0.3602 1 2 cbr 25 ------- 0 0.0 2.0 42 42
- 0.3602 1 2 cbr 25 ------- 0 0.0 2.0 42 42
r 0.3622 1 2 cbr 25 ------- 0 0.0 2.0 41 41
+ 0.365 0 1 cbr 25 ------- 0 0.0 2.0 53 53
- 0.365 0 1 cbr 25 ------- 0 0.0 2.0 53 53
r 0.3652 0 1 cbr 25 ------- 0 0.0 2.0 43 43
+ 0.3652 1 2 cbr 25 ------- 0 0.0 2.0 43 43
- 0.3652 1 2 cbr 25 ------- 0 0.0 2.0 43 43
r 0.3672 1 2 cbr 25 ------- 0 0.0 2.0 42 42
+ 0.37 0 1 cbr 25 ------- 0 0.0 2.0 54 54
- 0.37 0 1 cbr 25 ------- 0 0.0 2.0 54 54
r 0.3702 0 1 cbr 25 ------- 0 0.0 2.0 44 44
+ 0.3702 1 2 cbr 25 ------- 0 0.0 2.0 44 44
- 0.3702 1 2 cbr 25 ------- 0 0.0 2.0 44 44
r 0.3722 1 2 cbr 25 ------- 0 0.0 2.0 43 43
+ 0.375 0 1 cbr 25 ------- 0 0.0 2.0 55 55
- 0.375 0 1 cbr 25 ------- 0 0.0 2.0 55 55
r 0.3752 0 1 cbr 25 ------- 0 0.0 2.0 45 45
+ 0.3752 1 2 cbr 25 ------- 0 0.0 2.0 45 45
- 0.3752 1 2 cbr 25 ------- 0 0.0 2.0 45 45
r 0.3772 1 2 cbr 25 ------- 0 0.0 2.0 44 44
+ 0.38 0 1 cbr 25 ------- 0 0.0 2.0 56 56
- 0.38 0 1 cbr 25 ------- 0 0.0 2.0 56 56
r 0.3802 0 1 cbr 25 ------- 0 0.0 2.0 46 46
+ 0.3802 1 2 cbr 25 ------- 0 0.0 2.0 46 46
- 0.3802 1 2 cbr 25 ------- 0 0.0 2.0 46 46
r 0.3822 1 2 cbr 25 ------- 0 0.0 2.0 45 45
+ 0.385 0 1 cbr 25 ------- 0 0.0 2.0 57 57
- 0.385 0 1 cbr 25 ------- 0 0.0 2.0 57 57
r 0.3852 0 1 cbr 25 ------- 0 0.0 2.0 47 47
+ 0.3852 1 2 cbr 25 ------- 0 0.0 2.0 47 47
- 0.3852 1 2 cbr 25 ------- 0 0.0 2.0 47 47
r 0.3872 1 2 cbr 25 ------- 0 0.0 2.0 46 46
+ 0.39 0 1 cbr 25 ------- 0 0.0 2.0 58 58
- 0.39 0 1 cbr 25 ------- 0 0.0 2.0 58 58
r 0.3902 0 1 cbr 25 ------- 0 0.0 2.0 48 48
+ 0.3902 1 2 cbr 25 ------- 0 0.0 2.0 48 48
- 0.3902 1 2 cbr 25 ------- 0 0.0 2.0 48 48
r 0.3922 1 2 cbr 25 ------- 0 0.0 2.0 47 47
+ 0.395 0 1 cbr 25 ------- 0 0.0 2.0 59 59
- 0.395 0 1 cbr 25 ------- 0 0.0 2.0 59 59
r 0.3952 0 1 cbr 25 ------- 0 0.0 2.0 49 49
+ 0.3952 1 2 cbr 25 ------- 0 0.0 2.0 49 49
- 0.3952 1 2 cbr 25 ------- 0 0.0 2.0 49 49
r 0.3972 1 2 cbr 25 ------- 0 0.0 2.0 48 48
+ 0.4 0 1 cbr 25 ------- 0 0.0 2.0 60 60
- 0.4 0 1 cbr 25 ------- 0 0.0 2.0 60 60
r 0.4002 0 1 cbr 25 ------- 0 0.0 2.0 50 50
+ 0.4002 1 2 cbr 25 ------- 0 0.0 2.0 50 50
- 0.4002 1 2 cbr 25 ------- 0 0.0 2.0 50 50
r 0.4022 1 2 cbr 25 ------- 0 0.0 2.0 49 49
+ 0.405 0 1 cbr 25 ------- 0 0.0 2.0 61 61
- 0.405 0 1 cbr 25 ------- 0 0.0 2.0 61 61
r 0.4052 0 1 cbr 25 ------- 0 0.0 2.0 51 51
+ 0.4052 1 2 cbr 25 ------- 0 0.0 2.0 51 51
- 0.4052 1 2 cbr 25 ------- 0 0.0 2.0 51 51
r 0.4072 1 2 cbr 25 ------- 0 0.0 2.0 50 50
+ 0.41 0 1 cbr 25 ------- 0 0.0 2.0 62 62
- 0.41 0 1 cbr 25 ------- 0 0.0 2.0 62 62
r 0.4102 0 1 cbr 25 ------- 0 0.0 2.0 52 52
+ 0.4102 1 2 cbr 25 ------- 0 0.0 2.0 52 52
- 0.4102 1 2 cbr 25 ------- 0 0.0 2.0 52 52
r 0.4122 1 2 cbr 25 ------- 0 0.0 2.0 51 51
+ 0.415 0 1 cbr 25 ------- 0 0.0 2.0 63 63
- 0.415 0 1 cbr 25 ------- 0 0.0 2.0 63 63
r 0.4152 0 1 cbr 25 ------- 0 0.0 2.0 53 53
+ 0.4152 1 2 cbr 25 ------- 0 0.0 2.0 53 53
- 0.4152 1 2 cbr 25 ------- 0 0.0 2.0 53 53
r 0.4172 1 2 cbr 25 ------- 0 0.0 2.0 52 52
+ 0.42 0 1 cbr 25 ------- 0 0.0 2.0 64 64
- 0.42 0 1 cbr 25 ------- 0 0.0 2.0 64 64
r 0.4202 0 1 cbr 25 ------- 0 0.0 2.0 54 54
+ 0.4202 1 2 cbr 25 ------- 0 0.0 2.0 54 54
- 0.4202 1 2 cbr 25 ------- 0 0.0 2.0 54 54
r 0.4222 1 2 cbr 25 ------- 0 0.0 2.0 53 53
+ 0.425 0 1 cbr 25 ------- 0 0.0 2.0 65 65
- 0.425 0 1 cbr 25 ------- 0 0.0 2.0 65 65
r 0.4252 0 1 cbr 25 ------- 0 0.0 2.0 55 55
+ 0.4252 1 2 cbr 25 ------- 0 0.0 2.0 55 55
- 0.4252 1 2 cbr 25 ------- 0 0.0 2.0 55 55
r 0.4272 1 2 cbr 25 ------- 0 0.0 2.0 54 54
+ 0.43 0 1 cbr 25 ------- 0 0.0 2.0 66 66
- 0.43 0 1 cbr 25 ------- 0 0.0 2.0 66 66
r 0.4302 0 1 cbr 25 ------- 0 0.0 2.0 56 56
+ 0.4302 1 2 cbr 25 ------- 0 0.0 2.0 56 56
- 0.4302 1 2 cbr 25 ------- 0 0.0 2.0 56 56
r 0.4322 1 2 cbr 25 ------- 0 0.0 2.0 55 55
+ 0.435 0 1 cbr 25 ------- 0 0.0 2.0 67 67
- 0.435 0 1 cbr 25 ------- 0 0.0 2.0 67 67
r 0.4352 0 1 cbr 25 ------- 0 0.0 2.0 57 57
+ 0.4352 1 2 cbr 25 ------- 0 0.0 2.0 57 57
- 0.4352 1 2 cbr 25 ------- 0 0.0 2.0 57 57
r 0.4372 1 2 cbr 25 ------- 0 0.0 2.0 56 56
+ 0.44 0 1 cbr 25 ------- 0 0.0 2.0 68 68
- 0.44 0 1 cbr 25 ------- 0 0.0 2.0 68 68
r 0.4402 0 1 cbr 25 ------- 0 0.0 2.0 58 58
+ 0.4402 1 2 cbr 25 ------- 0 0.0 2.0 58 58
- 0.4402 1 2 cbr 25 ------- 0 0.0 2.0 58 58
r 0.4422 1 2 cbr 25 ------- 0 0.0 2.0 57 57
+ 0.445 0 1 cbr 25 ------- 0 0.0 2.0 69 69
- 0.445 0 1 cbr 25 ------- 0 0.0 2.0 69 69
r 0.4452 0 1 cbr 25 ------- 0 0.0 2.0 59 59
+ 0.4452 1 2 cbr 25 ------- 0 0.0 2.0 59 59
- 0.4452 1 2 cbr 25 ------- 0 0.0 2.0 59 59
r 0.4472 1 2 cbr 25 ------- 0 0.0 2.0 58 58
+ 0.45 0 1 cbr 25 ------- 0 0.0 2.0 70 70
- 0.45 0 1 cbr 25 ------- 0 0.0 2.0 70 70
r 0.4502 0 1 cbr 25 ------- 0 0.0 2.0 60 60
+ 0.4502 1 2 cbr 25 ------- 0 0.0 2.0 60 60
- 0.4502 1 2 cbr 25 ------- 0 0.0 2.0 60 60
r 0.4522 1 2 cbr 25 ------- 0 0.0 2.0 59 59
+ 0.455 0 1 cbr 25 ------- 0 0.0 2.0 71 71
- 0.455 0 1 cbr 25 ------- 0 0.0 2.0 71 71
r 0.4552 0 1 cbr 25 ------- 0 0.0 2.0 61 61
+ 0.4552 1 2 cbr 25 ------- 0 0.0 2.0 61 61
- 0.4552 1 2 cbr 25 ------- 0 0.0 2.0 61 61
r 0.4572 1 2 cbr 25 ------- 0 0.0 2.0 60 60
+ 0.46 0 1 cbr 25 ------- 0 0.0 2.0 72 72
- 0.46 0 1 cbr 25 ------- 0 0.0 2.0 72 72
r 0.4602 0 1 cbr 25 ------- 0 0.0 2.0 62 62
+ 0.4602 1 2 cbr 25 ------- 0 0.0 2.0 62 62
- 0.4602 1 2 cbr 25 ------- 0 0.0 2.0 62 62
r 0.4622 1 2 cbr 25 ------- 0 0.0 2.0 61 61
+ 0.465 0 1 cbr 25 ------- 0 0.0 2.0 73 73
- 0.465 0 1 cbr 25 ------- 0 0.0 2.0 73 73
r 0.4652 0 1 cbr 25 ------- 0 0.0 2.0 63 63
+ 0.4652 1 2 cbr 25 ------- 0 0.0 2.0 63 63
- 0.4652 1 2 cbr 25 ------- 0 0.0 2.0 63 63
r 0.4672 1 2 cbr 25 ------- 0 0.0 2.0 62 62
+ 0.47 0 1 cbr 25 ------- 0 0.0 2.0 74 74
- 0.47 0 1 cbr 25 ------- 0 0.0 2.0 74 74
r 0.4702 0 1 cbr 25 ------- 0 0.0 2.0 64 64
+ 0.4702 1 2 cbr 25 ------- 0 0.0 2.0 64 64
- 0.4702 1 2 cbr 25 ------- 0 0.0 2.0 64 64
r 0.4722 1 2 cbr 25 ------- 0 0.0 2.0 63 63
+ 0.475 0 1 cbr 25 ------- 0 0.0 2.0 75 75
- 0.475 0 1 cbr 25 ------- 0 0.0 2.0 75 75
r 0.4752 0 1 cbr 25 ------- 0 0.0 2.0 65 65
+ 0.4752 1 2 cbr 25 ------- 0 0.0 2.0 65 65
- 0.4752 1 2 cbr 25 ------- 0 0.0 2.0 65 65
r 0.4772 1 2 cbr 25 ------- 0 0.0 2.0 64 64
+ 0.48 0 1 cbr 25 ------- 0 0.0 2.0 76 76
- 0.48 0 1 cbr 25 ------- 0 0.0 2.0 76 76
r 0.4802 0 1 cbr 25 ------- 0 0.0 2.0 66 66
+ 0.4802 1 2 cbr 25 ------- 0 0.0 2.0 66 66
- 0.4802 1 2 cbr 25 ------- 0 0.0 2.0 66 66
r 0.4822 1 2 cbr 25 ------- 0 0.0 2.0 65 65
+ 0.485 0 1 cbr 25 ------- 0 0.0 2.0 77 77
- 0.485 0 1 cbr 25 ------- 0 0.0 2.0 77 77
r 0.4852 0 1 cbr 25 ------- 0 0.0 2.0 67 67
+ 0.4852 1 2 cbr 25 ------- 0 0.0 2.0 67 67
- 0.4852 1 2 cbr 25 ------- 0 0.0 2.0 67 67
r 0.4872 1 2 cbr 25 ------- 0 0.0 2.0 66 66
+ 0.49 0 1 cbr 25 ------- 0 0.0 2.0 78 78
- 0.49 0 1 cbr 25 ------- 0 0.0 2.0 78 78
r 0.4902 0 1 cbr 25 ------- 0 0.0 2.0 68 68
+ 0.4902 1 2 cbr 25 ------- 0 0.0 2.0 68 68
- 0.4902 1 2 cbr 25 ------- 0 0.0 2.0 68 68
r 0.4922 1 2 cbr 25 ------- 0 0.0 2.0 67 67
+ 0.495 0 1 cbr 25 ------- 0 0.0 2.0 79 79
- 0.495 0 1 cbr 25 ------- 0 0.0 2.0 79 79
r 0.4952 0 1 cbr 25 ------- 0 0.0 2.0 69 69
+ 0.4952 1 2 cbr 25 ------- 0 0.0 2.0 69 69
- 0.4952 1 2 cbr 25 ------- 0 0.0 2.0 69 69
r 0.4972 1 2 cbr 25 ------- 0 0.0 2.0 68 68
+ 0.5 0 1 cbr 25 ------- 0 0.0 2.0 80 80
- 0.5 0 1 cbr 25 ------- 0 0.0 2.0 80 80
r 0.5002 0 1 cbr 25 ------- 0 0.0 2.0 70 70
+ 0.5002 1 2 cbr 25 ------- 0 0.0 2.0 70 70
- 0.5002 1 2 cbr 25 ------- 0 0.0 2.0 70 70
r 0.5022 1 2 cbr 25 ------- 0 0.0 2.0 69 69
+ 0.505 0 1 cbr 25 ------- 0 0.0 2.0 81 81
- 0.505 0 1 cbr 25 ------- 0 0.0 2.0 81 81
r 0.5052 0 1 cbr 25 ------- 0 0.0 2.0 71 71
+ 0.5052 1 2 cbr 25 ------- 0 0.0 2.0 71 71
- 0.5052 1 2 cbr 25 ------- 0 0.0 2.0 71 71
r 0.5072 1 2 cbr 25 ------- 0 0.0 2.0 70 70
+ 0.51 0 1 cbr 25 ------- 0 0.0 2.0 82 82
- 0.51 0 1 cbr 25 ------- 0 0.0 2.0 82 82
r 0.5102 0 1 cbr 25 ------- 0 0.0 2.0 72 72
+ 0.5102 1 2 cbr 25 ------- 0 0.0 2.0 72 72
- 0.5102 1 2 cbr 25 ------- 0 0.0 2.0 72 72
r 0.5122 1 2 cbr 25 ------- 0 0.0 2.0 71 71
+ 0.515 0 1 cbr 25 ------- 0 0.0 2.0 83 83
- 0.515 0 1 cbr 25 ------- 0 0.0 2.0 83 83
r 0.5152 0 1 cbr 25 ------- 0 0.0 2.0 73 73
+ 0.5152 1 2 cbr 25 ------- 0 0.0 2.0 73 73
- 0.5152 1 2 cbr 25 ------- 0 0.0 2.0 73 73
r 0.5172 1 2 cbr 25 ------- 0 0.0 2.0 72 72
+ 0.52 0 1 cbr 25 ------- 0 0.0 2.0 84 84
- 0.52 0 1 cbr 25 ------- 0 0.0 2.0 84 84
r 0.5202 0 1 cbr 25 ------- 0 0.0 2.0 74 74
+ 0.5202 1 2 cbr 25 ------- 0 0.0 2.0 74 74
- 0.5202 1 2 cbr 25 ------- 0 0.0 2.0 74 74
r 0.5222 1 2 cbr 25 ------- 0 0.0 2.0 73 73
+ 0.525 0 1 cbr 25 ------- 0 0.0 2.0 85 85
- 0.525 0 1 cbr 25 ------- 0 0.0 2.0 85 85
r 0.5252 0 1 cbr 25 ------- 0 0.0 2.0 75 75
+ 0.5252 1 2 cbr 25 ------- 0 0.0 2.0 75 75
- 0.5252 1 2 cbr 25 ------- 0 0.0 2.0 75 75
r 0.5272 1 2 cbr 25 ------- 0 0.0 2.0 74 74
+ 0.53 0 1 cbr 25 ------- 0 0.0 2.0 86 86
- 0.53 0 1 cbr 25 ------- 0 0.0 2.0 86 86
r 0.5302 0 1 cbr 25 ------- 0 0.0 2.0 76 76
+ 0.5302 1 2 cbr 25 ------- 0 0.0 2.0 76 76
- 0.5302 1 2 cbr 25 ------- 0 0.0 2.0 76 76
r 0.5322 1 2 cbr 25 ------- 0 0.0 2.0 75 75
+ 0.535 0 1 cbr 25 ------- 0 0.0 2.0 87 87
- 0.535 0 1 cbr 25 ------- 0 0.0 2.0 87 87
r 0.5352 0 1 cbr 25 ------- 0 0.0 2.0 77 77
+ 0.5352 1 2 cbr 25 ------- 0 0.0 2.0 77 77
- 0.5352 1 2 cbr 25 ------- 0 0.0 2.0 77 77
r 0.5372 1 2 cbr 25 ------- 0 0.0 2.0 76 76
+ 0.54 0 1 cbr 25 ------- 0 0.0 2.0 88 88
- 0.54 0 1 cbr 25 ------- 0 0.0 2.0 88 88
r 0.5402 0 1 cbr 25 ------- 0 0.0 2.0 78 78
+ 0.5402 1 2 cbr 25 ------- 0 0.0 2.0 78 78
- 0.5402 1 2 cbr 25 ------- 0 0.0 2.0 78 78
r 0.5422 1 2 cbr 25 ------- 0 0.0 2.0 77 77
+ 0.545 0 1 cbr 25 ------- 0 0.0 2.0 89 89
- 0.545 0 1 cbr 25 ------- 0 0.0 2.0 89 89
r 0.5452 0 1 cbr 25 ------- 0 0.0 2.0 79 79
+ 0.5452 1 2 cbr 25 ------- 0 0.0 2.0 79 79
- 0.5452 1 2 cbr 25 ------- 0 0.0 2.0 79 79
r 0.5472 1 2 cbr 25 ------- 0 0.0 2.0 78 78
+ 0.55 0 1 cbr 25 ------- 0 0.0 2.0 90 90
- 0.55 0 1 cbr 25 ------- 0 0.0 2.0 90 90
r 0.5502 0 1 cbr 25 ------- 0 0.0 2.0 80 80
+ 0.5502 1 2 cbr 25 ------- 0 0.0 2.0 80 80
- 0.5502 1 2 cbr 25 ------- 0 0.0 2.0 80 80
r 0.5522 1 2 cbr 25 ------- 0 0.0 2.0 79 79
+ 0.555 0 1 cbr 25 ------- 0 0.0 2.0 91 91
- 0.555 0 1 cbr 25 ------- 0 0.0 2.0 91 91
r 0.5552 0 1 cbr 25 ------- 0 0.0 2.0 81 81
+ 0.5552 1 2 cbr 25 ------- 0 0.0 2.0 81 81
- 0.5552 1 2 cbr 25 ------- 0 0.0 2.0 81 81
r 0.5572 1 2 cbr 25 ------- 0 0.0 2.0 80 80
+ 0.56 0 1 cbr 25 ------- 0 0.0 2.0 92 92
- 0.56 0 1 cbr 25 ------- 0 0.0 2.0 92 92
r 0.5602 0 1 cbr 25 ------- 0 0.0 2.0 82 82
+ 0.5602 1 2 cbr 25 ------- 0 0.0 2.0 82 82
- 0.5602 1 2 cbr 25 ------- 0 0.0 2.0 82 82
r 0.5622 1 2 cbr 25 ------- 0 0.0 2.0 81 81
+ 0.565 0 1 cbr 25 ------- 0 0.0 2.0 93 93
- 0.565 0 1 cbr 25 ------- 0 0.0 2.0 93 93
r 0.5652 0 1 cbr 25 ------- 0 0.0 2.0 83 83
+ 0.5652 1 2 cbr 25 ------- 0 0.0 2.0 83 83
- 0.5652 1 2 cbr 25 ------- 0 0.0 2.0 83 83
r 0.5672 1 2 cbr 25 ------- 0 0.0 2.0 82 82
+ 0.57 0 1 cbr 25 ------- 0 0.0 2.0 94 94
- 0.57 0 1 cbr 25 ------- 0 0.0 2.0 94 94
r 0.5702 0 1 cbr 25 ------- 0 0.0 2.0 84 84
+ 0.5702 1 2 cbr 25 ------- 0 0.0 2.0 84 84
- 0.5702 1 2 cbr 25 ------- 0 0.0 2.0 84 84
r 0.5722 1 2 cbr 25 ------- 0 0.0 2.0 83 83
+ 0.575 0 1 cbr 25 ------- 0 0.0 2.0 95 95
- 0.575 0 1 cbr 25 ------- 0 0.0 2.0 95 95
r 0.5752 0 1 cbr 25 ------- 0 0.0 2.0 85 85
+ 0.5752 1 2 cbr 25 ------- 0 0.0 2.0 85 85
- 0.5752 1 2 cbr 25 ------- 0 0.0 2.0 85 85
r 0.5772 1 2 cbr 25 ------- 0 0.0 2.0 84 84
+ 0.58 0 1 cbr 25 ------- 0 0.0 2.0 96 96
- 0.58 0 1 cbr 25 ------- 0 0.0 2.0 96 96
r 0.5802 0 1 cbr 25 ------- 0 0.0 2.0 86 86
+ 0.5802 1 2 cbr 25 ------- 0 0.0 2.0 86 86
- 0.5802 1 2 cbr 25 ------- 0 0.0 2.0 86 86
r 0.5822 1 2 cbr 25 ------- 0 0.0 2.0 85 85
+ 0.585 0 1 cbr 25 ------- 0 0.0 2.0 97 97
- 0.585 0 1 cbr 25 ------- 0 0.0 2.0 97 97
r 0.5852 0 1 cbr 25 ------- 0 0.0 2.0 87 87
+ 0.5852 1 2 cbr 25 ------- 0 0.0 2.0 87 87
- 0.5852 1 2 cbr 25 ------- 0 0.0 2.0 87 87
r 0.5872 1 2 cbr 25 ------- 0 0.0 2.0 86 86
+ 0.59 0 1 cbr 25 ------- 0 0.0 2.0 98 98
- 0.59 0 1 cbr 25 ------- 0 0.0 2.0 98 98
r 0.5902 0 1 cbr 25 ------- 0 0.0 2.0 88 88
+ 0.5902 1 2 cbr 25 ------- 0 0.0 2.0 88 88
- 0.5902 1 2 cbr 25 ------- 0 0.0 2.0 88 88
r 0.5922 1 2 cbr 25 ------- 0 0.0 2.0 87 87
+ 0.595 0 1 cbr 25 ------- 0 0.0 2.0 99 99
- 0.595 0 1 cbr 25 ------- 0 0.0 2.0 99 99
r 0.5952 0 1 cbr 25 ------- 0 0.0 2.0 89 89
+ 0.5952 1 2 cbr 25 ------- 0 0.0 2.0 89 89
- 0.5952 1 2 cbr 25 ------- 0 0.0 2.0 89 89
r 0.5972 1 2 cbr 25 ------- 0 0.0 2.0 88 88
+ 0.6 0 1 cbr 25 ------- 0 0.0 2.0 100 100
- 0.6 0 1 cbr 25 ------- 0 0.0 2.0 100 100
r 0.6002 0 1 cbr 25 ------- 0 0.0 2.0 90 90
+ 0.6002 1 2 cbr 25 ------- 0 0.0 2.0 90 90
- 0.6002 1 2 cbr 25 ------- 0 0.0 2.0 90 90
r 0.6022 1 2 cbr 25 ------- 0 0.0 2.0 89 89
+ 0.605 0 1 cbr 25 ------- 0 0.0 2.0 101 101
- 0.605 0 1 cbr 25 ------- 0 0.0 2.0 101 101
r 0.6052 0 1 cbr 25 ------- 0 0.0 2.0 91 91
+ 0.6052 1 2 cbr 25 ------- 0 0.0 2.0 91 91
- 0.6052 1 2 cbr 25 ------- 0 0.0 2.0 91 91
r 0.6072 1 2 cbr 25 ------- 0 0.0 2.0 90 90
+ 0.61 0 1 cbr 25 ------- 0 0.0 2.0 102 102
- 0.61 0 1 cbr 25 ------- 0 0.0 2.0 102 102
r 0.6102 0 1 cbr 25 ------- 0 0.0 2.0 92 92
+ 0.6102 1 2 cbr 25 ------- 0 0.0 2.0 92 92
- 0.6102 1 2 cbr 25 ------- 0 0.0 2.0 92 92
r 0.6122 1 2 cbr 25 ------- 0 0.0 2.0 91 91
+ 0.615 0 1 cbr 25 ------- 0 0.0 2.0 103 103
- 0.615 0 1 cbr 25 ------- 0 0.0 2.0 103 103
r 0.6152 0 1 cbr 25 ------- 0 0.0 2.0 93 93
+ 0.6152 1 2 cbr 25 ------- 0 0.0 2.0 93 93
- 0.6152 1 2 cbr 25 ------- 0 0.0 2.0 93 93
r 0.6172 1 2 cbr 25 ------- 0 0.0 2.0 92 92
+ 0.62 0 1 cbr 25 ------- 0 0.0 2.0 104 104
- 0.62 0 1 cbr 25 ------- 0 0.0 2.0 104 104
r 0.6202 0 1 cbr 25 ------- 0 0.0 2.0 94 94
+ 0.6202 1 2 cbr 25 ------- 0 0.0 2.0 94 94
- 0.6202 1 2 cbr 25 ------- 0 0.0 2.0 94 94
r 0.6222 1 2 cbr 25 ------- 0 0.0 2.0 93 93
+ 0.625 0 1 cbr 25 ------- 0 0.0 2.0 105 105
- 0.625 0 1 cbr 25 ------- 0 0.0 2.0 105 105
r 0.6252 0 1 cbr 25 ------- 0 0.0 2.0 95 95
+ 0.6252 1 2 cbr 25 ------- 0 0.0 2.0 95 95
- 0.6252 1 2 cbr 25 ------- 0 0.0 2.0 95 95
r 0.6272 1 2 cbr 25 ------- 0 0.0 2.0 94 94
+ 0.63 0 1 cbr 25 ------- 0 0.0 2.0 106 106
- 0.63 0 1 cbr 25 ------- 0 0.0 2.0 106 106
r 0.6302 0 1 cbr 25 ------- 0 0.0 2.0 96 96
+ 0.6302 1 2 cbr 25 ------- 0 0.0 2.0 96 96
- 0.6302 1 2 cbr 25 ------- 0 0.0 2.0 96 96
r 0.6322 1 2 cbr 25 ------- 0 0.0 2.0 95 95
+ 0.635 0 1 cbr 25 ------- 0 0.0 2.0 107 107
- 0.635 0 1 cbr 25 ------- 0 0.0 2.0 107 107
r 0.6352 0 1 cbr 25 ------- 0 0.0 2.0 97 97
+ 0.6352 1 2 cbr 25 ------- 0 0.0 2.0 97 97
- 0.6352 1 2 cbr 25 ------- 0 0.0 2.0 97 97
r 0.6372 1 2 cbr 25 ------- 0 0.0 2.0 96 96
+ 0.64 0 1 cbr 25 ------- 0 0.0 2.0 108 108
- 0.64 0 1 cbr 25 ------- 0 0.0 2.0 108 108
r 0.6402 0 1 cbr 25 ------- 0 0.0 2.0 98 98
+ 0.6402 1 2 cbr 25 ------- 0 0.0 2.0 98 98
- 0.6402 1 2 cbr 25 ------- 0 0.0 2.0 98 98
r 0.6422 1 2 cbr 25 ------- 0 0.0 2.0 97 97
+ 0.645 0 1 cbr 25 ------- 0 0.0 2.0 109 109
- 0.645 0 1 cbr 25 ------- 0 0.0 2.0 109 109
r 0.6452 0 1 cbr 25 ------- 0 0.0 2.0 99 99
+ 0.6452 1 2 cbr 25 ------- 0 0.0 2.0 99 99
- 0.6452 1 2 cbr 25 ------- 0 0.0 2.0 99 99
r 0.6472 1 2 cbr 25 ------- 0 0.0 2.0 98 98
+ 0.65 0 1 cbr 25 ------- 0 0.0 2.0 110 110
- 0.65 0 1 cbr 25 ------- 0 0.0 2.0 110 110
r 0.6502 0 1 cbr 25 ------- 0 0.0 2.0 100 100
+ 0.6502 1 2 cbr 25 ------- 0 0.0 2.0 100 100
- 0.6502 1 2 cbr 25 ------- 0 0.0 2.0 100 100
r 0.6522 1 2 cbr 25 ------- 0 0.0 2.0 99 99
+ 0.655 0 1 cbr 25 ------- 0 0.0 2.0 111 111
- 0.655 0 1 cbr 25 ------- 0 0.0 2.0 111 111
r 0.6552 0 1 cbr 25 ------- 0 0.0 2.0 101 101
+ 0.6552 1 2 cbr 25 ------- 0 0.0 2.0 101 101
- 0.6552 1 2 cbr 25 ------- 0 0.0 2.0 101 101
r 0.6572 1 2 cbr 25 ------- 0 0.0 2.0 100 100
+ 0.66 0 1 cbr 25 ------- 0 0.0 2.0 112 112
- 0.66 0 1 cbr 25 ------- 0 0.0 2.0 112 112
r 0.6602 0 1 cbr 25 ------- 0 0.0 2.0 102 102
+ 0.6602 1 2 cbr 25 ------- 0 0.0 2.0 102 102
- 0.6602 1 2 cbr 25 ------- 0 0.0 2.0 102 102
r 0.6622 1 2 cbr 25 ------- 0 0.0 2.0 101 101
+ 0.665 0 1 cbr 25 ------- 0 0.0 2.0 113 113
- 0.665 0 1 cbr 25 ------- 0 0.0 2.0 113 113
r 0.6652 0 1 cbr 25 ------- 0 0.0 2.0 103 103
+ 0.6652 1 2 cbr 25 ------- 0 0.0 2.0 103 103
- 0.6652 1 2 cbr 25 ------- 0 0.0 2.0 103 103
r 0.6672 1 2 cbr 25 ------- 0 0.0 2.0 102 102
+ 0.67 0 1 cbr 25 ------- 0 0.0 2.0 114 114
- 0.67 0 1 cbr 25 ------- 0 0.0 2.0 114 114
r 0.6702 0 1 cbr 25 ------- 0 0.0 2.0 104 104
+ 0.6702 1 2 cbr 25 ------- 0 0.0 2.0 104 104
- 0.6702 1 2 cbr 25 ------- 0 0.0 2.0 104 104
r 0.6722 1 2 cbr 25 ------- 0 0.0 2.0 103 103
+ 0.675 0 1 cbr 25 ------- 0 0.0 2.0 115 115
- 0.675 0 1 cbr 25 ------- 0 0.0 2.0 115 115
r 0.6752 0 1 cbr 25 ------- 0 0.0 2.0 105 105
+ 0.6752 1 2 cbr 25 ------- 0 0.0 2.0 105 105
- 0.6752 1 2 cbr 25 ------- 0 0.0 2.0 105 105
r 0.6772 1 2 cbr 25 ------- 0 0.0 2.0 104 104
+ 0.68 0 1 cbr 25 ------- 0 0.0 2.0 116 116
- 0.68 0 1 cbr 25 ------- 0 0.0 2.0 116 116
r 0.6802 0 1 cbr 25 ------- 0 0.0 2.0 106 106
+ 0.6802 1 2 cbr 25 ------- 0 0.0 2.0 106 106
- 0.6802 1 2 cbr 25 ------- 0 0.0 2.0 106 106
r 0.6822 1 2 cbr 25 ------- 0 0.0 2.0 105 105
+ 0.685 0 1 cbr 25 ------- 0 0.0 2.0 117 117
- 0.685 0 1 cbr 25 ------- 0 0.0 2.0 117 117
r 0.6852 0 1 cbr 25 ------- 0 0.0 2.0 107 107
+ 0.6852 1 2 cbr 25 ------- 0 0.0 2.0 107 107
- 0.6852 1 2 cbr 25 ------- 0 0.0 2.0 107 107
r 0.6872 1 2 cbr 25 ------- 0 0.0 2.0 106 106
+ 0.69 0 1 cbr 25 ------- 0 0.0 2.0 118 118
- 0.69 0 1 cbr 25 ------- 0 0.0 2.0 118 118
r 0.6902 0 1 cbr 25 ------- 0 0.0 2.0 108 108
+ 0.6902 1 2 cbr 25 ------- 0 0.0 2.0 108 108
- 0.6902 1 2 cbr 25 ------- 0 0.0 2.0 108 108
r 0.6922 1 2 cbr 25 ------- 0 0.0 2.0 107 107
+ 0.695 0 1 cbr 25 ------- 0 0.0 2.0 119 119
- 0.695 0 1 cbr 25 ------- 0 0.0 2.0 119 119
r 0.6952 0 1 cbr 25 ------- 0 0.0 2.0 109 109
+ 0.6952 1 2 cbr 25 ------- 0 0.0 2.0 109 109
- 0.6952 1 2 cbr 25 ------- 0 0.0 2.0 109 109
r 0.6972 1 2 cbr 25 ------- 0 0.0 2.0 108 108
+ 0.7 0 1 cbr 25 ------- 0 0.0 2.0 120 120
- 0.7 0 1 cbr 25 ------- 0 0.0 2.0 120 120
r 0.7002 0 1 cbr 25 ------- 0 0.0 2.0 110 110
+ 0.7002 1 2 cbr 25 ------- 0 0.0 2.0 110 110
- 0.7002 1 2 cbr 25 ------- 0 0.0 2.0 110 110
r 0.7022 1 2 cbr 25 ------- 0 0.0 2.0 109 109
+ 0.705 0 1 cbr 25 ------- 0 0.0 2.0 121 121
- 0.705 0 1 cbr 25 ------- 0 0.0 2.0 121 121
r 0.7052 0 1 cbr 25 ------- 0 0.0 2.0 111 111
+ 0.7052 1 2 cbr 25 ------- 0 0.0 2.0 111 111