+ 0.1 0 1 cbr 75 ------- 0 0.0 2.0 0 0
- 0.1 0 1 cbr 75 ------- 0 0.0 2.0 0 0
+ 0.105 0 1 cbr 75 ------- 0 0.0 2.0 1 1
- 0.105 0 1 cbr 75 ------- 0 0.0 2.0 1 1
+ 0.11 0 1 cbr 75 ------- 0 0.0 2.0 2 2
- 0.11 0 1 cbr 75 ------- 0 0.0 2.0 2 2
+ 0.115 0 1 cbr 75 ------- 0 0.0 2.0 3 3
- 0.115 0 1 cbr 75 ------- 0 0.0 2.0 3 3
+ 0.12 0 1 cbr 75 ------- 0 0.0 2.0 4 4
- 0.12 0 1 cbr 75 ------- 0 0.0 2.0 4 4
+ 0.125 0 1 cbr 75 ------- 0 0.0 2.0 5 5
- 0.125 0 1 cbr 75 ------- 0 0.0 2.0 5 5
+ 0.13 0 1 cbr 75 ------- 0 0.0 2.0 6 6
- 0.13 0 1 cbr 75 ------- 0 0.0 2.0 6 6
+ 0.135 0 1 cbr 75 ------- 0 0.0 2.0 7 7
- 0.135 0 1 cbr 75 ------- 0 0.0 2.0 7 7
+ 0.14 0 1 cbr 75 ------- 0 0.0 2.0 8 8
- 0.14 0 1 cbr 75 ------- 0 0.0 2.0 8 8
+ 0.145 0 1 cbr 75 ------- 0 0.0 2.0 9 9
- 0.145 0 1 cbr 75 ------- 0 0.0 2.0 9 9
+ 0.15 0 1 cbr 75 ------- 0 0.0 2.0 10 10
- 0.15 0 1 cbr 75 ------- 0 0.0 2.0 10 10
r 0.1506 0 1 cbr 75 ------- 0 0.0 2.0 0 0
+ 0.1506 1 2 cbr 75 ------- 0 0.0 2.0 0 0
- 0.1506 1 2 cbr 75 ------- 0 0.0 2.0 0 0
+ 0.155 0 1 cbr 75 ------- 0 0.0 2.0 11 11
- 0.155 0 1 cbr 75 ------- 0 0.0 2.0 11 11
r 0.1556 0 1 cbr 75 ------- 0 0.0 2.0 1 1
+ 0.1556 1 2 cbr 75 ------- 0 0.0 2.0 1 1
- 0.1566 1 2 cbr 75 ------- 0 0.0 2.0 1 1
+ 0.16 0 1 cbr 75 ------- 0 0.0 2.0 12 12
- 0.16 0 1 cbr 75 ------- 0 0.0 2.0 12 12
r 0.1606 0 1 cbr 75 ------- 0 0.0 2.0 2 2
+ 0.1606 1 2 cbr 75 ------- 0 0.0 2.0 2 2
r 0.1616 1 2 cbr 75 ------- 0 0.0 2.0 0 0
- 0.1626 1 2 cbr 75 ------- 0 0.0 2.0 2 2
+ 0.165 0 1 cbr 75 ------- 0 0.0 2.0 13 13
- 0.165 0 1 cbr 75 ------- 0 0.0 2.0 13 13
r 0.1656 0 1 cbr 75 ------- 0 0.0 2.0 3 3
+ 0.1656 1 2 cbr 75 ------- 0 0.0 2.0 3 3
r 0.1676 1 2 cbr 75 ------- 0 0.0 2.0 1 1
- 0.1686 1 2 cbr 75 ------- 0 0.0 2.0 3 3
+ 0.17 0 1 cbr 75 ------- 0 0.0 2.0 14 14
- 0.17 0 1 cbr 75 ------- 0 0.0 2.0 14 14
r 0.1706 0 1 cbr 75 ------- 0 0.0 2.0 4 4
+ 0.1706 1 2 cbr 75 ------- 0 0.0 2.0 4 4
r 0.1736 1 2 cbr 75 ------- 0 0.0 2.0 2 2
- 0.1746 1 2 cbr 75 ------- 0 0.0 2.0 4 4
+ 0.175 0 1 cbr 75 ------- 0 0.0 2.0 15 15
- 0.175 0 1 cbr 75 ------- 0 0.0 2.0 15 15
r 0.1756 0 1 cbr 75 ------- 0 0.0 2.0 5 5
+ 0.1756 1 2 cbr 75 ------- 0 0.0 2.0 5 5
r 0.1796 1 2 cbr 75 ------- 0 0.0 2.0 3 3
+ 0.18 0 1 cbr 75 ------- 0 0.0 2.0 16 16
- 0.18 0 1 cbr 75 ------- 0 0.0 2.0 16 16
r 0.1806 0 1 cbr 75 ------- 0 0.0 2.0 6 6
+ 0.1806 1 2 cbr 75 ------- 0 0.0 2.0 6 6
- 0.1806 1 2 cbr 75 ------- 0 0.0 2.0 5 5
+ 0.185 0 1 cbr 75 ------- 0 0.0 2.0 17 17
- 0.185 0 1 cbr 75 ------- 0 0.0 2.0 17 17
r 0.1856 0 1 cbr 75 ------- 0 0.0 2.0 7 7
+ 0.1856 1 2 cbr 75 ------- 0 0.0 2.0 7 7
r 0.1856 1 2 cbr 75 ------- 0 0.0 2.0 4 4
- 0.1866 1 2 cbr 75 ------- 0 0.0 2.0 6 6
+ 0.19 0 1 cbr 75 ------- 0 0.0 2.0 18 18
- 0.19 0 1 cbr 75 ------- 0 0.0 2.0 18 18
r 0.1906 0 1 cbr 75 ------- 0 0.0 2.0 8 8
+ 0.1906 1 2 cbr 75 ------- 0 0.0 2.0 8 8
r 0.1916 1 2 cbr 75 ------- 0 0.0 2.0 5 5
- 0.1926 1 2 cbr 75 ------- 0 0.0 2.0 7 7
+ 0.195 0 1 cbr 75 ------- 0 0.0 2.0 19 19
- 0.195 0 1 cbr 75 ------- 0 0.0 2.0 19 19
r 0.1956 0 1 cbr 75 ------- 0 0.0 2.0 9 9
+ 0.1956 1 2 cbr 75 ------- 0 0.0 2.0 9 9
r 0.1976 1 2 cbr 75 ------- 0 0.0 2.0 6 6
- 0.1986 1 2 cbr 75 ------- 0 0.0 2.0 8 8
+ 0.2 0 1 cbr 75 ------- 0 0.0 2.0 20 20
- 0.2 0 1 cbr 75 ------- 0 0.0 2.0 20 20
r 0.2006 0 1 cbr 75 ------- 0 0.0 2.0 10 10
+ 0.2006 1 2 cbr 75 ------- 0 0.0 2.0 10 10
r 0.2036 1 2 cbr 75 ------- 0 0.0 2.0 7 7
- 0.2046 1 2 cbr 75 ------- 0 0.0 2.0 9 9
+ 0.205 0 1 cbr 75 ------- 0 0.0 2.0 21 21
- 0.205 0 1 cbr 75 ------- 0 0.0 2.0 21 21
r 0.2056 0 1 cbr 75 ------- 0 0.0 2.0 11 11
+ 0.2056 1 2 cbr 75 ------- 0 0.0 2.0 11 11
r 0.2096 1 2 cbr 75 ------- 0 0.0 2.0 8 8
+ 0.21 0 1 cbr 75 ------- 0 0.0 2.0 22 22
- 0.21 0 1 cbr 75 ------- 0 0.0 2.0 22 22
r 0.2106 0 1 cbr 75 ------- 0 0.0 2.0 12 12
+ 0.2106 1 2 cbr 75 ------- 0 0.0 2.0 12 12
- 0.2106 1 2 cbr 75 ------- 0 0.0 2.0 10 10
+ 0.215 0 1 cbr 75 ------- 0 0.0 2.0 23 23
- 0.215 0 1 cbr 75 ------- 0 0.0 2.0 23 23
r 0.2156 0 1 cbr 75 ------- 0 0.0 2.0 13 13
+ 0.2156 1 2 cbr 75 ------- 0 0.0 2.0 13 13
r 0.2156 1 2 cbr 75 ------- 0 0.0 2.0 9 9
- 0.2166 1 2 cbr 75 ------- 0 0.0 2.0 11 11
+ 0.22 0 1 cbr 75 ------- 0 0.0 2.0 24 24
- 0.22 0 1 cbr 75 ------- 0 0.0 2.0 24 24
r 0.2206 0 1 cbr 75 ------- 0 0.0 2.0 14 14
+ 0.2206 1 2 cbr 75 ------- 0 0.0 2.0 14 14
r 0.2216 1 2 cbr 75 ------- 0 0.0 2.0 10 10
- 0.2226 1 2 cbr 75 ------- 0 0.0 2.0 12 12
+ 0.225 0 1 cbr 75 ------- 0 0.0 2.0 25 25
- 0.225 0 1 cbr 75 ------- 0 0.0 2.0 25 25
r 0.2256 0 1 cbr 75 ------- 0 0.0 2.0 15 15
+ 0.2256 1 2 cbr 75 ------- 0 0.0 2.0 15 15
r 0.2276 1 2 cbr 75 ------- 0 0.0 2.0 11 11
- 0.2286 1 2 cbr 75 ------- 0 0.0 2.0 13 13
+ 0.23 0 1 cbr 75 ------- 0 0.0 2.0 26 26
- 0.23 0 1 cbr 75 ------- 0 0.0 2.0 26 26
r 0.2306 0 1 cbr 75 ------- 0 0.0 2.0 16 16
+ 0.2306 1 2 cbr 75 ------- 0 0.0 2.0 16 16
r 0.2336 1 2 cbr 75 ------- 0 0.0 2.0 12 12
- 0.2346 1 2 cbr 75 ------- 0 0.0 2.0 14 14
+ 0.235 0 1 cbr 75 ------- 0 0.0 2.0 27 27
- 0.235 0 1 cbr 75 ------- 0 0.0 2.0 27 27
r 0.2356 0 1 cbr 75 ------- 0 0.0 2.0 17 17
+ 0.2356 1 2 cbr 75 ------- 0 0.0 2.0 17 17
r 0.2396 1 2 cbr 75 ------- 0 0.0 2.0 13 13
+ 0.24 0 1 cbr 75 ------- 0 0.0 2.0 28 28
- 0.24 0 1 cbr 75 ------- 0 0.0 2.0 28 28
r 0.2406 0 1 cbr 75 ------- 0 0.0 2.0 18 18
+ 0.2406 1 2 cbr 75 ------- 0 0.0 2.0 18 18
- 0.2406 1 2 cbr 75 ------- 0 0.0 2.0 15 15
+ 0.245 0 1 cbr 75 ------- 0 0.0 2.0 29 29
- 0.245 0 1 cbr 75 ------- 0 0.0 2.0 29 29
r 0.2456 0 1 cbr 75 ------- 0 0.0 2.0 19 19
+ 0.2456 1 2 cbr 75 ------- 0 0.0 2.0 19 19
r 0.2456 1 2 cbr 75 ------- 0 0.0 2.0 14 14
- 0.2466 1 2 cbr 75 ------- 0 0.0 2.0 16 16
+ 0.25 0 1 cbr 75 ------- 0 0.0 2.0 30 30
- 0.25 0 1 cbr 75 ------- 0 0.0 2.0 30 30
r 0.2506 0 1 cbr 75 ------- 0 0.0 2.0 20 20
+ 0.2506 1 2 cbr 75 ------- 0 0.0 2.0 20 20
r 0.2516 1 2 cbr 75 ------- 0 0.0 2.0 15 15
- 0.2526 1 2 cbr 75 ------- 0 0.0 2.0 17 17
+ 0.255 0 1 cbr 75 ------- 0 0.0 2.0 31 31
- 0.255 0 1 cbr 75 ------- 0 0.0 2.0 31 31
r 0.2556 0 1 cbr 75 ------- 0 0.0 2.0 21 21
+ 0.2556 1 2 cbr 75 ------- 0 0.0 2.0 21 21
r 0.2576 1 2 cbr 75 ------- 0 0.0 2.0 16 16
- 0.2586 1 2 cbr 75 ------- 0 0.0 2.0 18 18
+ 0.26 0 1 cbr 75 ------- 0 0.0 2.0 32 32
- 0.26 0 1 cbr 75 ------- 0 0.0 2.0 32 32
r 0.2606 0 1 cbr 75 ------- 0 0.0 2.0 22 22
+ 0.2606 1 2 cbr 75 ------- 0 0.0 2.0 22 22
r 0.2636 1 2 cbr 75 ------- 0 0.0 2.0 17 17
- 0.2646 1 2 cbr 75 ------- 0 0.0 2.0 19 19
+ 0.265 0 1 cbr 75 ------- 0 0.0 2.0 33 33
- 0.265 0 1 cbr 75 ------- 0 0.0 2.0 33 33
r 0.2656 0 1 cbr 75 ------- 0 0.0 2.0 23 23
+ 0.2656 1 2 cbr 75 ------- 0 0.0 2.0 23 23
r 0.2696 1 2 cbr 75 ------- 0 0.0 2.0 18 18
+ 0.27 0 1 cbr 75 ------- 0 0.0 2.0 34 34
- 0.27 0 1 cbr 75 ------- 0 0.0 2.0 34 34
r 0.2706 0 1 cbr 75 ------- 0 0.0 2.0 24 24
+ 0.2706 1 2 cbr 75 ------- 0 0.0 2.0 24 24
- 0.2706 1 2 cbr 75 ------- 0 0.0 2.0 20 20
+ 0.275 0 1 cbr 75 ------- 0 0.0 2.0 35 35
- 0.275 0 1 cbr 75 ------- 0 0.0 2.0 35 35
r 0.2756 0 1 cbr 75 ------- 0 0.0 2.0 25 25
+ 0.2756 1 2 cbr 75 ------- 0 0.0 2.0 25 25
r 0.2756 1 2 cbr 75 ------- 0 0.0 2.0 19 19
- 0.2766 1 2 cbr 75 ------- 0 0.0 2.0 21 21
+ 0.28 0 1 cbr 75 ------- 0 0.0 2.0 36 36
- 0.28 0 1 cbr 75 ------- 0 0.0 2.0 36 36
r 0.2806 0 1 cbr 75 ------- 0 0.0 2.0 26 26
+ 0.2806 1 2 cbr 75 ------- 0 0.0 2.0 26 26
r 0.2816 1 2 cbr 75 ------- 0 0.0 2.0 20 20
- 0.2826 1 2 cbr 75 ------- 0 0.0 2.0 22 22
+ 0.285 0 1 cbr 75 ------- 0 0.0 2.0 37 37
- 0.285 0 1 cbr 75 ------- 0 0.0 2.0 37 37
r 0.2856 0 1 cbr 75 ------- 0 0.0 2.0 27 27
+ 0.2856 1 2 cbr 75 ------- 0 0.0 2.0 27 27
r 0.2876 1 2 cbr 75 ------- 0 0.0 2.0 21 21
- 0.2886 1 2 cbr 75 ------- 0 0.0 2.0 23 23
+ 0.29 0 1 cbr 75 ------- 0 0.0 2.0 38 38
- 0.29 0 1 cbr 75 ------- 0 0.0 2.0 38 38
r 0.2906 0 1 cbr 75 ------- 0 0.0 2.0 28 28
+ 0.2906 1 2 cbr 75 ------- 0 0.0 2.0 28 28
r 0.2936 1 2 cbr 75 ------- 0 0.0 2.0 22 22
- 0.2946 1 2 cbr 75 ------- 0 0.0 2.0 24 24
+ 0.295 0 1 cbr 75 ------- 0 0.0 2.0 39 39
- 0.295 0 1 cbr 75 ------- 0 0.0 2.0 39 39
r 0.2956 0 1 cbr 75 ------- 0 0.0 2.0 29 29
+ 0.2956 1 2 cbr 75 ------- 0 0.0 2.0 29 29
r 0.2996 1 2 cbr 75 ------- 0 0.0 2.0 23 23
+ 0.3 0 1 cbr 75 ------- 0 0.0 2.0 40 40
- 0.3 0 1 cbr 75 ------- 0 0.0 2.0 40 40
r 0.3006 0 1 cbr 75 ------- 0 0.0 2.0 30 30
+ 0.3006 1 2 cbr 75 ------- 0 0.0 2.0 30 30
- 0.3006 1 2 cbr 75 ------- 0 0.0 2.0 25 25
+ 0.305 0 1 cbr 75 ------- 0 0.0 2.0 41 41
- 0.305 0 1 cbr 75 ------- 0 0.0 2.0 41 41
r 0.3056 0 1 cbr 75 ------- 0 0.0 2.0 31 31
+ 0.3056 1 2 cbr 75 ------- 0 0.0 2.0 31 31
r 0.3056 1 2 cbr 75 ------- 0 0.0 2.0 24 24
- 0.3066 1 2 cbr 75 ------- 0 0.0 2.0 26 26
+ 0.31 0 1 cbr 75 ------- 0 0.0 2.0 42 42
- 0.31 0 1 cbr 75 ------- 0 0.0 2.0 42 42
r 0.3106 0 1 cbr 75 ------- 0 0.0 2.0 32 32
+ 0.3106 1 2 cbr 75 ------- 0 0.0 2.0 32 32
r 0.3116 1 2 cbr 75 ------- 0 0.0 2.0 25 25
- 0.3126 1 2 cbr 75 ------- 0 0.0 2.0 27 27
+ 0.315 0 1 cbr 75 ------- 0 0.0 2.0 43 43
- 0.315 0 1 cbr 75 ------- 0 0.0 2.0 43 43
r 0.3156 0 1 cbr 75 ------- 0 0.0 2.0 33 33
+ 0.3156 1 2 cbr 75 ------- 0 0.0 2.0 33 33
r 0.3176 1 2 cbr 75 ------- 0 0.0 2.0 26 26
- 0.3186 1 2 cbr 75 ------- 0 0.0 2.0 28 28
+ 0.32 0 1 cbr 75 ------- 0 0.0 2.0 44 44
- 0.32 0 1 cbr 75 ------- 0 0.0 2.0 44 44
r 0.3206 0 1 cbr 75 ------- 0 0.0 2.0 34 34
+ 0.3206 1 2 cbr 75 ------- 0 0.0 2.0 34 34
r 0.3236 1 2 cbr 75 ------- 0 0.0 2.0 27 27
- 0.3246 1 2 cbr 75 ------- 0 0.0 2.0 29 29
+ 0.325 0 1 cbr 75 ------- 0 0.0 2.0 45 45
- 0.325 0 1 cbr 75 ------- 0 0.0 2.0 45 45
r 0.3256 0 1 cbr 75 ------- 0 0.0 2.0 35 35
+ 0.3256 1 2 cbr 75 ------- 0 0.0 2.0 35 35
r 0.3296 1 2 cbr 75 ------- 0 0.0 2.0 28 28
+ 0.33 0 1 cbr 75 ------- 0 0.0 2.0 46 46
- 0.33 0 1 cbr 75 ------- 0 0.0 2.0 46 46
r 0.3306 0 1 cbr 75 ------- 0 0.0 2.0 36 36
+ 0.3306 1 2 cbr 75 ------- 0 0.0 2.0 36 36
- 0.3306 1 2 cbr 75 ------- 0 0.0 2.0 30 30
+ 0.335 0 1 cbr 75 ------- 0 0.0 2.0 47 47
- 0.335 0 1 cbr 75 ------- 0 0.0 2.0 47 47
r 0.3356 0 1 cbr 75 ------- 0 0.0 2.0 37 37
+ 0.3356 1 2 cbr 75 ------- 0 0.0 2.0 37 37
r 0.3356 1 2 cbr 75 ------- 0 0.0 2.0 29 29
- 0.3366 1 2 cbr 75 ------- 0 0.0 2.0 31 31
+ 0.34 0 1 cbr 75 ------- 0 0.0 2.0 48 48
- 0.34 0 1 cbr 75 ------- 0 0.0 2.0 48 48
r 0.3406 0 1 cbr 75 ------- 0 0.0 2.0 38 38
+ 0.3406 1 2 cbr 75 ------- 0 0.0 2.0 38 38
r 0.3416 1 2 cbr 75 ------- 0 0.0 2.0 30 30
- 0.3426 1 2 cbr 75 ------- 0 0.0 2.0 32 32
+ 0.345 0 1 cbr 75 ------- 0 0.0 2.0 49 49
- 0.345 0 1 cbr 75 ------- 0 0.0 2.0 49 49
r 0.3456 0 1 cbr 75 ------- 0 0.0 2.0 39 39
+ 0.3456 1 2 cbr 75 ------- 0 0.0 2.0 39 39
r 0.3476 1 2 cbr 75 ------- 0 0.0 2.0 31 31
- 0.3486 1 2 cbr 75 ------- 0 0.0 2.0 33 33
+ 0.35 0 1 cbr 75 ------- 0 0.0 2.0 50 50
- 0.35 0 1 cbr 75 ------- 0 0.0 2.0 50 50
r 0.3506 0 1 cbr 75 ------- 0 0.0 2.0 40 40
+ 0.3506 1 2 cbr 75 ------- 0 0.0 2.0 40 40
r 0.3536 1 2 cbr 75 ------- 0 0.0 2.0 32 32
- 0.3546 1 2 cbr 75 ------- 0 0.0 2.0 34 34
+ 0.355 0 1 cbr 75 ------- 0 0.0 2.0 51 51
- 0.355 0 1 cbr 75 ------- 0 0.0 2.0 51 51
r 0.3556 0 1 cbr 75 ------- 0 0.0 2.0 41 41
+ 0.3556 1 2 cbr 75 ------- 0 0.0 2.0 41 41
r 0.3596 1 2 cbr 75 ------- 0 0.0 2.0 33 33
+ 0.36 0 1 cbr 75 ------- 0 0.0 2.0 52 52
- 0.36 0 1 cbr 75 ------- 0 0.0 2.0 52 52
r 0.3606 0 1 cbr 75 ------- 0 0.0 2.0 42 42
+ 0.3606 1 2 cbr 75 ------- 0 0.0 2.0 42 42
- 0.3606 1 2 cbr 75 ------- 0 0.0 2.0 35 35
+ 0.365 0 1 cbr 75 ------- 0 0.0 2.0 53 53
- 0.365 0 1 cbr 75 ------- 0 0.0 2.0 53 53
r 0.3656 0 1 cbr 75 ------- 0 0.0 2.0 43 43
+ 0.3656 1 2 cbr 75 ------- 0 0.0 2.0 43 43
r 0.3656 1 2 cbr 75 ------- 0 0.0 2.0 34 34
- 0.3666 1 2 cbr 75 ------- 0 0.0 2.0 36 36
+ 0.37 0 1 cbr 75 ------- 0 0.0 2.0 54 54
- 0.37 0 1 cbr 75 ------- 0 0.0 2.0 54 54
r 0.3706 0 1 cbr 75 ------- 0 0.0 2.0 44 44
+ 0.3706 1 2 cbr 75 ------- 0 0.0 2.0 44 44
r 0.3716 1 2 cbr 75 ------- 0 0.0 2.0 35 35
- 0.3726 1 2 cbr 75 ------- 0 0.0 2.0 37 37
+ 0.375 0 1 cbr 75 ------- 0 0.0 2.0 55 55
- 0.375 0 1 cbr 75 ------- 0 0.0 2.0 55 55
r 0.3756 0 1 cbr 75 ------- 0 0.0 2.0 45 45
+ 0.3756 1 2 cbr 75 ------- 0 0.0 2.0 45 45
r 0.3776 1 2 cbr 75 ------- 0 0.0 2.0 36 36
- 0.3786 1 2 cbr 75 ------- 0 0.0 2.0 38 38
+ 0.38 0 1 cbr 75 ------- 0 0.0 2.0 56 56
- 0.38 0 1 cbr 75 ------- 0 0.0 2.0 56 56
r 0.3806 0 1 cbr 75 ------- 0 0.0 2.0 46 46
+ 0.3806 1 2 cbr 75 ------- 0 0.0 2.0 46 46
r 0.3836 1 2 cbr 75 ------- 0 0.0 2.0 37 37
- 0.3846 1 2 cbr 75 ------- 0 0.0 2.0 39 39
+ 0.385 0 1 cbr 75 ------- 0 0.0 2.0 57 57
- 0.385 0 1 cbr 75 ------- 0 0.0 2.0 57 57
r 0.3856 0 1 cbr 75 ------- 0 0.0 2.0 47 47
+ 0.3856 1 2 cbr 75 ------- 0 0.0 2.0 47 47
r 0.3896 1 2 cbr 75 ------- 0 0.0 2.0 38 38
+ 0.39 0 1 cbr 75 ------- 0 0.0 2.0 58 58
- 0.39 0 1 cbr 75 ------- 0 0.0 2.0 58 58
r 0.3906 0 1 cbr 75 ------- 0 0.0 2.0 48 48
+ 0.3906 1 2 cbr 75 ------- 0 0.0 2.0 48 48
- 0.3906 1 2 cbr 75 ------- 0 0.0 2.0 40 40
+ 0.395 0 1 cbr 75 ------- 0 0.0 2.0 59 59
- 0.395 0 1 cbr 75 ------- 0 0.0 2.0 59 59
r 0.3956 0 1 cbr 75 ------- 0 0.0 2.0 49 49
+ 0.3956 1 2 cbr 75 ------- 0 0.0 2.0 49 49
r 0.3956 1 2 cbr 75 ------- 0 0.0 2.0 39 39
- 0.3966 1 2 cbr 75 ------- 0 0.0 2.0 41 41
+ 0.4 0 1 cbr 75 ------- 0 0.0 2.0 60 60
- 0.4 0 1 cbr 75 ------- 0 0.0 2.0 60 60
r 0.4006 0 1 cbr 75 ------- 0 0.0 2.0 50 50
+ 0.4006 1 2 cbr 75 ------- 0 0.0 2.0 50 50
r 0.4016 1 2 cbr 75 ------- 0 0.0 2.0 40 40
- 0.4026 1 2 cbr 75 ------- 0 0.0 2.0 42 42
+ 0.405 0 1 cbr 75 ------- 0 0.0 2.0 61 61
- 0.405 0 1 cbr 75 ------- 0 0.0 2.0 61 61
r 0.4056 0 1 cbr 75 ------- 0 0.0 2.0 51 51
+ 0.4056 1 2 cbr 75 ------- 0 0.0 2.0 51 51
r 0.4076 1 2 cbr 75 ------- 0 0.0 2.0 41 41
- 0.4086 1 2 cbr 75 ------- 0 0.0 2.0 43 43
+ 0.41 0 1 cbr 75 ------- 0 0.0 2.0 62 62
- 0.41 0 1 cbr 75 ------- 0 0.0 2.0 62 62
r 0.4106 0 1 cbr 75 ------- 0 0.0 2.0 52 52
+ 0.4106 1 2 cbr 75 ------- 0 0.0 2.0 52 52
r 0.4136 1 2 cbr 75 ------- 0 0.0 2.0 42 42
- 0.4146 1 2 cbr 75 ------- 0 0.0 2.0 44 44
+ 0.415 0 1 cbr 75 ------- 0 0.0 2.0 63 63
- 0.415 0 1 cbr 75 ------- 0 0.0 2.0 63 63
r 0.4156 0 1 cbr 75 ------- 0 0.0 2.0 53 53
+ 0.4156 1 2 cbr 75 ------- 0 0.0 2.0 53 53
r 0.4196 1 2 cbr 75 ------- 0 0.0 2.0 43 43
+ 0.42 0 1 cbr 75 ------- 0 0.0 2.0 64 64
- 0.42 0 1 cbr 75 ------- 0 0.0 2.0 64 64
r 0.4206 0 1 cbr 75 ------- 0 0.0 2.0 54 54
+ 0.4206 1 2 cbr 75 ------- 0 0.0 2.0 54 54
d 0.4206 1 2 cbr 75 ------- 0 0.0 2.0 54 54
- 0.4206 1 2 cbr 75 ------- 0 0.0 2.0 45 45
+ 0.425 0 1 cbr 75 ------- 0 0.0 2.0 65 65
- 0.425 0 1 cbr 75 ------- 0 0.0 2.0 65 65
r 0.4256 0 1 cbr 75 ------- 0 0.0 2.0 55 55
+ 0.4256 1 2 cbr 75 ------- 0 0.0 2.0 55 55
r 0.4256 1 2 cbr 75 ------- 0 0.0 2.0 44 44
- 0.4266 1 2 cbr 75 ------- 0 0.0 2.0 46 46
+ 0.43 0 1 cbr 75 ------- 0 0.0 2.0 66 66
- 0.43 0 1 cbr 75 ------- 0 0.0 2.0 66 66
r 0.4306 0 1 cbr 75 ------- 0 0.0 2.0 56 56
+ 0.4306 1 2 cbr 75 ------- 0 0.0 2.0 56 56
r 0.4316 1 2 cbr 75 ------- 0 0.0 2.0 45 45
- 0.4326 1 2 cbr 75 ------- 0 0.0 2.0 47 47
+ 0.435 0 1 cbr 75 ------- 0 0.0 2.0 67 67
- 0.435 0 1 cbr 75 ------- 0 0.0 2.0 67 67
r 0.4356 0 1 cbr 75 ------- 0 0.0 2.0 57 57
+ 0.4356 1 2 cbr 75 ------- 0 0.0 2.0 57 57
r 0.4376 1 2 cbr 75 ------- 0 0.0 2.0 46 46
- 0.4386 1 2 cbr 75 ------- 0 0.0 2.0 48 48
+ 0.44 0 1 cbr 75 ------- 0 0.0 2.0 68 68
- 0.44 0 1 cbr 75 ------- 0 0.0 2.0 68 68
r 0.4406 0 1 cbr 75 ------- 0 0.0 2.0 58 58
+ 0.4406 1 2 cbr 75 ------- 0 0.0 2.0 58 58
r 0.4436 1 2 cbr 75 ------- 0 0.0 2.0 47 47
- 0.4446 1 2 cbr 75 ------- 0 0.0 2.0 49 49
+ 0.445 0 1 cbr 75 ------- 0 0.0 2.0 69 69
- 0.445 0 1 cbr 75 ------- 0 0.0 2.0 69 69
r 0.4456 0 1 cbr 75 ------- 0 0.0 2.0 59 59
+ 0.4456 1 2 cbr 75 ------- 0 0.0 2.0 59 59
r 0.4496 1 2 cbr 75 ------- 0 0.0 2.0 48 48
+ 0.45 0 1 cbr 75 ------- 0 0.0 2.0 70 70
- 0.45 0 1 cbr 75 ------- 0 0.0 2.0 70 70
r 0.4506 0 1 cbr 75 ------- 0 0.0 2.0 60 60
+ 0.4506 1 2 cbr 75 ------- 0 0.0 2.0 60 60
d 0.4506 1 2 cbr 75 ------- 0 0.0 2.0 60 60
- 0.4506 1 2 cbr 75 ------- 0 0.0 2.0 50 50
+ 0.455 0 1 cbr 75 ------- 0 0.0 2.0 71 71
- 0.455 0 1 cbr 75 ------- 0 0.0 2.0 71 71
r 0.4556 0 1 cbr 75 ------- 0 0.0 2.0 61 61
+ 0.4556 1 2 cbr 75 ------- 0 0.0 2.0 61 61
r 0.4556 1 2 cbr 75 ------- 0 0.0 2.0 49 49
- 0.4566 1 2 cbr 75 ------- 0 0.0 2.0 51 51
+ 0.46 0 1 cbr 75 ------- 0 0.0 2.0 72 72
- 0.46 0 1 cbr 75 ------- 0 0.0 2.0 72 72
r 0.4606 0 1 cbr 75 ------- 0 0.0 2.0 62 62
+ 0.4606 1 2 cbr 75 ------- 0 0.0 2.0 62 62
r 0.4616 1 2 cbr 75 ------- 0 0.0 2.0 50 50
- 0.4626 1 2 cbr 75 ------- 0 0.0 2.0 52 52
+ 0.465 0 1 cbr 75 ------- 0 0.0 2.0 73 73
- 0.465 0 1 cbr 75 ------- 0 0.0 2.0 73 73
r 0.4656 0 1 cbr 75 ------- 0 0.0 2.0 63 63
+ 0.4656 1 2 cbr 75 ------- 0 0.0 2.0 63 63
r 0.4676 1 2 cbr 75 ------- 0 0.0 2.0 51 51
- 0.4686 1 2 cbr 75 ------- 0 0.0 2.0 53 53
+ 0.47 0 1 cbr 75 ------- 0 0.0 2.0 74 74
- 0.47 0 1 cbr 75 ------- 0 0.0 2.0 74 74
r 0.4706 0 1 cbr 75 ------- 0 0.0 2.0 64 64
+ 0.4706 1 2 cbr 75 ------- 0 0.0 2.0 64 64
r 0.4736 1 2 cbr 75 ------- 0 0.0 2.0 52 52
- 0.4746 1 2 cbr 75 ------- 0 0.0 2.0 55 55
+ 0.475 0 1 cbr 75 ------- 0 0.0 2.0 75 75
- 0.475 0 1 cbr 75 ------- 0 0.0 2.0 75 75
r 0.4756 0 1 cbr 75 ------- 0 0.0 2.0 65 65
+ 0.4756 1 2 cbr 75 ------- 0 0.0 2.0 65 65
r 0.4796 1 2 cbr 75 ------- 0 0.0 2.0 53 53
+ 0.48 0 1 cbr 75 ------- 0 0.0 2.0 76 76
- 0.48 0 1 cbr 75 ------- 0 0.0 2.0 76 76
r 0.4806 0 1 cbr 75 ------- 0 0.0 2.0 66 66
+ 0.4806 1 2 cbr 75 ------- 0 0.0 2.0 66 66
d 0.4806 1 2 cbr 75 ------- 0 0.0 2.0 66 66
- 0.4806 1 2 cbr 75 ------- 0 0.0 2.0 56 56
+ 0.485 0 1 cbr 75 ------- 0 0.0 2.0 77 77
- 0.485 0 1 cbr 75 ------- 0 0.0 2.0 77 77
r 0.4856 0 1 cbr 75 ------- 0 0.0 2.0 67 67
+ 0.4856 1 2 cbr 75 ------- 0 0.0 2.0 67 67
r 0.4856 1 2 cbr 75 ------- 0 0.0 2.0 55 55
- 0.4866 1 2 cbr 75 ------- 0 0.0 2.0 57 57
+ 0.49 0 1 cbr 75 ------- 0 0.0 2.0 78 78
- 0.49 0 1 cbr 75 ------- 0 0.0 2.0 78 78
r 0.4906 0 1 cbr 75 ------- 0 0.0 2.0 68 68
+ 0.4906 1 2 cbr 75 ------- 0 0.0 2.0 68 68
r 0.4916 1 2 cbr 75 ------- 0 0.0 2.0 56 56
- 0.4926 1 2 cbr 75 ------- 0 0.0 2.0 58 58
+ 0.495 0 1 cbr 75 ------- 0 0.0 2.0 79 79
- 0.495 0 1 cbr 75 ------- 0 0.0 2.0 79 79
r 0.4956 0 1 cbr 75 ------- 0 0.0 2.0 69 69
+ 0.4956 1 2 cbr 75 ------- 0 0.0 2.0 69 69
r 0.4976 1 2 cbr 75 ------- 0 0.0 2.0 57 57
- 0.4986 1 2 cbr 75 ------- 0 0.0 2.0 59 59
+ 0.5 0 1 cbr 75 ------- 0 0.0 2.0 80 80
- 0.5 0 1 cbr 75 ------- 0 0.0 2.0 80 80
r 0.5006 0 1 cbr 75 ------- 0 0.0 2.0 70 70
+ 0.5006 1 2 cbr 75 ------- 0 0.0 2.0 70 70
r 0.5036 1 2 cbr 75 ------- 0 0.0 2.0 58 58
- 0.5046 1 2 cbr 75 ------- 0 0.0 2.0 61 61
+ 0.505 0 1 cbr 75 ------- 0 0.0 2.0 81 81
- 0.505 0 1 cbr 75 ------- 0 0.0 2.0 81 81
r 0.5056 0 1 cbr 75 ------- 0 0.0 2.0 71 71
+ 0.5056 1 2 cbr 75 ------- 0 0.0 2.0 71 71
r 0.5096 1 2 cbr 75 ------- 0 0.0 2.0 59 59
+ 0.51 0 1 cbr 75 ------- 0 0.0 2.0 82 82
- 0.51 0 1 cbr 75 ------- 0 0.0 2.0 82 82
r 0.5106 0 1 cbr 75 ------- 0 0.0 2.0 72 72
+ 0.5106 1 2 cbr 75 ------- 0 0.0 2.0 72 72
d 0.5106 1 2 cbr 75 ------- 0 0.0 2.0 72 72
- 0.5106 1 2 cbr 75 ------- 0 0.0 2.0 62 62
+ 0.515 0 1 cbr 75 ------- 0 0.0 2.0 83 83
- 0.515 0 1 cbr 75 ------- 0 0.0 2.0 83 83
r 0.5156 0 1 cbr 75 ------- 0 0.0 2.0 73 73
+ 0.5156 1 2 cbr 75 ------- 0 0.0 2.0 73 73
r 0.5156 1 2 cbr 75 ------- 0 0.0 2.0 61 61
- 0.5166 1 2 cbr 75 ------- 0 0.0 2.0 63 63
+ 0.52 0 1 cbr 75 ------- 0 0.0 2.0 84 84
- 0.52 0 1 cbr 75 ------- 0 0.0 2.0 84 84
r 0.5206 0 1 cbr 75 ------- 0 0.0 2.0 74 74
+ 0.5206 1 2 cbr 75 ------- 0 0.0 2.0 74 74
r 0.5216 1 2 cbr 75 ------- 0 0.0 2.0 62 62
- 0.5226 1 2 cbr 75 ------- 0 0.0 2.0 64 64
+ 0.525 0 1 cbr 75 ------- 0 0.0 2.0 85 85
- 0.525 0 1 cbr 75 ------- 0 0.0 2.0 85 85
r 0.5256 0 1 cbr 75 ------- 0 0.0 2.0 75 75
+ 0.5256 1 2 cbr 75 ------- 0 0.0 2.0 75 75
r 0.5276 1 2 cbr 75 ------- 0 0.0 2.0 63 63
- 0.5286 1 2 cbr 75 ------- 0 0.0 2.0 65 65
+ 0.53 0 1 cbr 75 ------- 0 0.0 2.0 86 86
- 0.53 0 1 cbr 75 ------- 0 0.0 2.0 86 86
r 0.5306 0 1 cbr 75 ------- 0 0.0 2.0 76 76
+ 0.5306 1 2 cbr 75 ------- 0 0.0 2.0 76 76
r 0.5336 1 2 cbr 75 ------- 0 0.0 2.0 64 64
- 0.5346 1 2 cbr 75 ------- 0 0.0 2.0 67 67
+ 0.535 0 1 cbr 75 ------- 0 0.0 2.0 87 87
- 0.535 0 1 cbr 75 ------- 0 0.0 2.0 87 87
r 0.5356 0 1 cbr 75 ------- 0 0.0 2.0 77 77
+ 0.5356 1 2 cbr 75 ------- 0 0.0 2.0 77 77
r 0.5396 1 2 cbr 75 ------- 0 0.0 2.0 65 65
+ 0.54 0 1 cbr 75 ------- 0 0.0 2.0 88 88
- 0.54 0 1 cbr 75 ------- 0 0.0 2.0 88 88
r 0.5406 0 1 cbr 75 ------- 0 0.0 2.0 78 78
+ 0.5406 1 2 cbr 75 ------- 0 0.0 2.0 78 78
d 0.5406 1 2 cbr 75 ------- 0 0.0 2.0 78 78
- 0.5406 1 2 cbr 75 ------- 0 0.0 2.0 68 68
+ 0.545 0 1 cbr 75 ------- 0 0.0 2.0 89 89
- 0.545 0 1 cbr 75 ------- 0 0.0 2.0 89 89
r 0.5456 0 1 cbr 75 ------- 0 0.0 2.0 79 79
+ 0.5456 1 2 cbr 75 ------- 0 0.0 2.0 79 79
r 0.5456 1 2 cbr 75 ------- 0 0.0 2.0 67 67
- 0.5466 1 2 cbr 75 ------- 0 0.0 2.0 69 69
+ 0.55 0 1 cbr 75 ------- 0 0.0 2.0 90 90
- 0.55 0 1 cbr 75 ------- 0 0.0 2.0 90 90
r 0.5506 0 1 cbr 75 ------- 0 0.0 2.0 80 80
+ 0.5506 1 2 cbr 75 ------- 0 0.0 2.0 80 80
r 0.5516 1 2 cbr 75 ------- 0 0.0 2.0 68 68
- 0.5526 1 2 cbr 75 ------- 0 0.0 2.0 70 70
+ 0.555 0 1 cbr 75 ------- 0 0.0 2.0 91 91
- 0.555 0 1 cbr 75 ------- 0 0.0 2.0 91 91
r 0.5556 0 1 cbr 75 ------- 0 0.0 2.0 81 81
+ 0.5556 1 2 cbr 75 ------- 0 0.0 2.0 81 81
r 0.5576 1 2 cbr 75 ------- 0 0.0 2.0 69 69
- 0.5586 1 2 cbr 75 ------- 0 0.0 2.0 71 71
+ 0.56 0 1 cbr 75 ------- 0 0.0 2.0 92 92
- 0.56 0 1 cbr 75 ------- 0 0.0 2.0 92 92
r 0.5606 0 1 cbr 75 ------- 0 0.0 2.0 82 82
+ 0.5606 1 2 cbr 75 ------- 0 0.0 2.0 82 82
r 0.5636 1 2 cbr 75 ------- 0 0.0 2.0 70 70
- 0.5646 1 2 cbr 75 ------- 0 0.0 2.0 73 73
+ 0.565 0 1 cbr 75 ------- 0 0.0 2.0 93 93
- 0.565 0 1 cbr 75 ------- 0 0.0 2.0 93 93
r 0.5656 0 1 cbr 75 ------- 0 0.0 2.0 83 83
+ 0.5656 1 2 cbr 75 ------- 0 0.0 2.0 83 83
r 0.5696 1 2 cbr 75 ------- 0 0.0 2.0 71 71
+ 0.57 0 1 cbr 75 ------- 0 0.0 2.0 94 94
- 0.57 0 1 cbr 75 ------- 0 0.0 2.0 94 94
r 0.5706 0 1 cbr 75 ------- 0 0.0 2.0 84 84
+ 0.5706 1 2 cbr 75 ------- 0 0.0 2.0 84 84
d 0.5706 1 2 cbr 75 ------- 0 0.0 2.0 84 84
- 0.5706 1 2 cbr 75 ------- 0 0.0 2.0 74 74
+ 0.575 0 1 cbr 75 ------- 0 0.0 2.0 95 95
- 0.575 0 1 cbr 75 ------- 0 0.0 2.0 95 95
r 0.5756 0 1 cbr 75 ------- 0 0.0 2.0 85 85
+ 0.5756 1 2 cbr 75 ------- 0 0.0 2.0 85 85
r 0.5756 1 2 cbr 75 ------- 0 0.0 2.0 73 73
- 0.5766 1 2 cbr 75 ------- 0 0.0 2.0 75 75
+ 0.58 0 1 cbr 75 ------- 0 0.0 2.0 96 96
- 0.58 0 1 cbr 75 ------- 0 0.0 2.0 96 96
r 0.5806 0 1 cbr 75 ------- 0 0.0 2.0 86 86
+ 0.5806 1 2 cbr 75 ------- 0 0.0 2.0 86 86
r 0.5816 1 2 cbr 75 ------- 0 0.0 2.0 74 74
- 0.5826 1 2 cbr 75 ------- 0 0.0 2.0 76 76
+ 0.585 0 1 cbr 75 ------- 0 0.0 2.0 97 97
- 0.585 0 1 cbr 75 ------- 0 0.0 2.0 97 97
r 0.5856 0 1 cbr 75 ------- 0 0.0 2.0 87 87
+ 0.5856 1 2 cbr 75 ------- 0 0.0 2.0 87 87
r 0.5876 1 2 cbr 75 ------- 0 0.0 2.0 75 75
- 0.5886 1 2 cbr 75 ------- 0 0.0 2.0 77 77
+ 0.59 0 1 cbr 75 ------- 0 0.0 2.0 98 98
- 0.59 0 1 cbr 75 ------- 0 0.0 2.0 98 98
r 0.5906 0 1 cbr 75 ------- 0 0.0 2.0 88 88
+ 0.5906 1 2 cbr 75 ------- 0 0.0 2.0 88 88
r 0.5936 1 2 cbr 75 ------- 0 0.0 2.0 76 76
- 0.5946 1 2 cbr 75 ------- 0 0.0 2.0 79 79
+ 0.595 0 1 cbr 75 ------- 0 0.0 2.0 99 99
- 0.595 0 1 cbr 75 ------- 0 0.0 2.0 99 99
r 0.5956 0 1 cbr 75 ------- 0 0.0 2.0 89 89
+ 0.5956 1 2 cbr 75 ------- 0 0.0 2.0 89 89
r 0.5996 1 2 cbr 75 ------- 0 0.0 2.0 77 77
+ 0.6 0 1 cbr 75 ------- 0 0.0 2.0 100 100
- 0.6 0 1 cbr 75 ------- 0 0.0 2.0 100 100
r 0.6006 0 1 cbr 75 ------- 0 0.0 2.0 90 90
+ 0.6006 1 2 cbr 75 ------- 0 0.0 2.0 90 90
d 0.6006 1 2 cbr 75 ------- 0 0.0 2.0 90 90
- 0.6006 1 2 cbr 75 ------- 0 0.0 2.0 80 80
+ 0.605 0 1 cbr 75 ------- 0 0.0 2.0 101 101
- 0.605 0 1 cbr 75 ------- 0 0.0 2.0 101 101
r 0.6056 0 1 cbr 75 ------- 0 0.0 2.0 91 91
+ 0.6056 1 2 cbr 75 ------- 0 0.0 2.0 91 91
r 0.6056 1 2 cbr 75 ------- 0 0.0 2.0 79 79
- 0.6066 1 2 cbr 75 ------- 0 0.0 2.0 81 81
+ 0.61 0 1 cbr 75 ------- 0 0.0 2.0 102 102
- 0.61 0 1 cbr 75 ------- 0 0.0 2.0 102 102
r 0.6106 0 1 cbr 75 ------- 0 0.0 2.0 92 92
+ 0.6106 1 2 cbr 75 ------- 0 0.0 2.0 92 92
r 0.6116 1 2 cbr 75 ------- 0 0.0 2.0 80 80
- 0.6126 1 2 cbr 75 ------- 0 0.0 2.0 82 82
+ 0.615 0 1 cbr 75 ------- 0 0.0 2.0 103 103
- 0.615 0 1 cbr 75 ------- 0 0.0 2.0 103 103
r 0.6156 0 1 cbr 75 ------- 0 0.0 2.0 93 93
+ 0.6156 1 2 cbr 75 ------- 0 0.0 2.0 93 93
r 0.6176 1 2 cbr 75 ------- 0 0.0 2.0 81 81
- 0.6186 1 2 cbr 75 ------- 0 0.0 2.0 83 83
+ 0.62 0 1 cbr 75 ------- 0 0.0 2.0 104 104
- 0.62 0 1 cbr 75 ------- 0 0.0 2.0 104 104
r 0.6206 0 1 cbr 75 ------- 0 0.0 2.0 94 94
+ 0.6206 1 2 cbr 75 ------- 0 0.0 2.0 94 94
r 0.6236 1 2 cbr 75 ------- 0 0.0 2.0 82 82
- 0.6246 1 2 cbr 75 ------- 0 0.0 2.0 85 85
+ 0.625 0 1 cbr 75 ------- 0 0.0 2.0 105 105
- 0.625 0 1 cbr 75 ------- 0 0.0 2.0 105 105
r 0.6256 0 1 cbr 75 ------- 0 0.0 2.0 95 95
+ 0.6256 1 2 cbr 75 ------- 0 0.0 2.0 95 95
r 0.6296 1 2 cbr 75 ------- 0 0.0 2.0 83 83
+ 0.63 0 1 cbr 75 ------- 0 0.0 2.0 106 106
- 0.63 0 1 cbr 75 ------- 0 0.0 2.0 106 106
r 0.6306 0 1 cbr 75 ------- 0 0.0 2.0 96 96
+ 0.6306 1 2 cbr 75 ------- 0 0.0 2.0 96 96
d 0.6306 1 2 cbr 75 ------- 0 0.0 2.0 96 96
- 0.6306 1 2 cbr 75 ------- 0 0.0 2.0 86 86
+ 0.635 0 1 cbr 75 ------- 0 0.0 2.0 107 107
- 0.635 0 1 cbr 75 ------- 0 0.0 2.0 107 107
r 0.6356 0 1 cbr 75 ------- 0 0.0 2.0 97 97
+ 0.6356 1 2 cbr 75 ------- 0 0.0 2.0 97 97
r 0.6356 1 2 cbr 75 ------- 0 0.0 2.0 85 85
- 0.6366 1 2 cbr 75 ------- 0 0.0 2.0 87 87
+ 0.64 0 1 cbr 75 ------- 0 0.0 2.0 108 108
- 0.64 0 1 cbr 75 ------- 0 0.0 2.0 108 108
r 0.6406 0 1 cbr 75 ------- 0 0.0 2.0 98 98
+ 0.6406 1 2 cbr 75 ------- 0 0.0 2.0 98 98
r 0.6416 1 2 cbr 75 ------- 0 0.0 2.0 86 86
- 0.6426 1 2 cbr 75 ------- 0 0.0 2.0 88 88
+ 0.645 0 1 cbr 75 ------- 0 0.0 2.0 109 109
- 0.645 0 1 cbr 75 ------- 0 0.0 2.0 109 109
r 0.6456 0 1 cbr 75 ------- 0 0.0 2.0 99 99
+ 0.6456 1 2 cbr 75 ------- 0 0.0 2.0 99 99
r 0.6476 1 2 cbr 75 ------- 0 0.0 2.0 87 87
- 0.6486 1 2 cbr 75 ------- 0 0.0 2.0 89 89
+ 0.65 0 1 cbr 75 ------- 0 0.0 2.0 110 110
- 0.65 0 1 cbr 75 ------- 0 0.0 2.0 110 110
r 0.6506 0 1 cbr 75 ------- 0 0.0 2.0 100 100
+ 0.6506 1 2 cbr 75 ------- 0 0.0 2.0 100 100
r 0.6536 1 2 cbr 75 ------- 0 0.0 2.0 88 88
- 0.6546 1 2 cbr 75 ------- 0 0.0 2.0 91 91
+ 0.655 0 1 cbr 75 ------- 0 0.0 2.0 111 111
- 0.655 0 1 cbr 75 ------- 0 0.0 2.0 111 111
r 0.6556 0 1 cbr 75 ------- 0 0.0 2.0 101 101
+ 0.6556 1 2 cbr 75 ------- 0 0.0 2.0 101 101
r 0.6596 1 2 cbr 75 ------- 0 0.0 2.0 89 89
+ 0.66 0 1 cbr 75 ------- 0 0.0 2.0 112 112
- 0.66 0 1 cbr 75 ------- 0 0.0 2.0 112 112
r 0.6606 0 1 cbr 75 ------- 0 0.0 2.0 102 102
+ 0.6606 1 2 cbr 75 ------- 0 0.0 2.0 102 102
d 0.6606 1 2 cbr 75 ------- 0 0.0 2.0 102 102
- 0.6606 1 2 cbr 75 ------- 0 0.0 2.0 92 92
+ 0.665 0 1 cbr 75 ------- 0 0.0 2.0 113 113
- 0.665 0 1 cbr 75 ------- 0 0.0 2.0 113 113
r 0.6656 0 1 cbr 75 ------- 0 0.0 2.0 103 103
+ 0.6656 1 2 cbr 75 ------- 0 0.0 2.0 103 103
r 0.6656 1 2 cbr 75 ------- 0 0.0 2.0 91 91
- 0.6666 1 2 cbr 75 ------- 0 0.0 2.0 93 93
+ 0.67 0 1 cbr 75 ------- 0 0.0 2.0 114 114
- 0.67 0 1 cbr 75 ------- 0 0.0 2.0 114 114
r 0.6706 0 1 cbr 75 ------- 0 0.0 2.0 104 104
+ 0.6706 1 2 cbr 75 ------- 0 0.0 2.0 104 104
r 0.6716 1 2 cbr 75 ------- 0 0.0 2.0 92 92
- 0.6726 1 2 cbr 75 ------- 0 0.0 2.0 94 94
+ 0.675 0 1 cbr 75 ------- 0 0.0 2.0 115 115
- 0.675 0 1 cbr 75 ------- 0 0.0 2.0 115 115
r 0.6756 0 1 cbr 75 ------- 0 0.0 2.0 105 105
+ 0.6756 1 2 cbr 75 ------- 0 0.0 2.0 105 105
r 0.6776 1 2 cbr 75 ------- 0 0.0 2.0 93 93
- 0.6786 1 2 cbr 75 ------- 0 0.0 2.0 95 95
+ 0.68 0 1 cbr 75 ------- 0 0.0 2.0 116 116
- 0.68 0 1 cbr 75 ------- 0 0.0 2.0 116 116
r 0.6806 0 1 cbr 75 ------- 0 0.0 2.0 106 106
+ 0.6806 1 2 cbr 75 ------- 0 0.0 2.0 106 106
r 0.6836 1 2 cbr 75 ------- 0 0.0 2.0 94 94
- 0.6846 1 2 cbr 75 ------- 0 0.0 2.0 97 97
+ 0.685 0 1 cbr 75 ------- 0 0.0 2.0 117 117
- 0.685 0 1 cbr 75 ------- 0 0.0 2.0 117 117
r 0.6856 0 1 cbr 75 ------- 0 0.0 2.0 107 107
+ 0.6856 1 2 cbr 75 ------- 0 0.0 2.0 107 107
r 0.6896 1 2 cbr 75 ------- 0 0.0 2.0 95 95
+ 0.69 0 1 cbr 75 ------- 0 0.0 2.0 118 118
- 0.69 0 1 cbr 75 ------- 0 0.0 2.0 118 118
r 0.6906 0 1 cbr 75 ------- 0 0.0 2.0 108 108
+ 0.6906 1 2 cbr 75 ------- 0 0.0 2.0 108 108
d 0.6906 1 2 cbr 75 ------- 0 0.0 2.0 108 108
- 0.6906 1 2 cbr 75 ------- 0 0.0 2.0 98 98
+ 0.695 0 1 cbr 75 ------- 0 0.0 2.0 119 119
- 0.695 0 1 cbr 75 ------- 0 0.0 2.0 119 119
r 0.6956 0 1 cbr 75 ------- 0 0.0 2.0 109 109
+ 0.6956 1 2 cbr 75 ------- 0 0.0 2.0 109 109
r 0.6956 1 2 cbr 75 ------- 0 0.0 2.0 97 97
- 0.6966 1 2 cbr 75 ------- 0 0.0 2.0 99 99
+ 0.7 0 1 cbr 75 ------- 0 0.0 2.0 120 120
- 0.7 0 1 cbr 75 ------- 0 0.0 2.0 120 120
r 0.7006 0 1 cbr 75 ------- 0 0.0 2.0 110 110
+ 0.7006 1 2 cbr 75 ------- 0 0.0 2.0 110 110
r 0.7016 1 2 cbr 75 ------- 0 0.0 2.0 98 98
- 0.7026 1 2 cbr 75 ------- 0 0.0 2.0 100 100
+ 0.705 0 1 cbr 75 ------- 0 0.0 2.0 121 121
- 0.705 0 1 cbr 75 ------- 0 0.0 2.0 121 121
r 0.7056 0 1 cbr 75 ------- 0 0.0 2.0 111 111
+ 0.7056 1 2 cbr 75 ------- 0 0.0 2.0 111 111
r 0.7076 1 2 cbr 75 ------- 0 0.0 2.0 99 99
- 0.7086 1 2 cbr 75 ------- 0 0.0 2.0 101 101
+ 0.71 0 1 cbr 75 ------- 0 0.0 2.0 122 122
- 0.71 0 1 cbr 75 ------- 0 0.0 2.0 122 122
r 0.7106 0 1 cbr 75 ------- 0 0.0 2.0 112 112
+ 0.7106 1 2 cbr 75 ------- 0 0.0 2.0 112 112
r 0.7136 1 2 cbr 75 ------- 0 0.0 2.0 100 100
- 0.7146 1 2 cbr 75 ------- 0 0.0 2.0 103 103
+ 0.715 0 1 cbr 75 ------- 0 0.0 2.0 123 123
- 0.715 0 1 cbr 75 ------- 0 0.0 2.0 123 123
r 0.7156 0 1 cbr 75 ------- 0 0.0 2.0 113 113
+ 0.7156 1 2 cbr 75 ------- 0 0.0 2.0 113 113
r 0.7196 1 2 cbr 75 ------- 0 0.0 2.0 101 101
+ 0.72 0 1 cbr 75 ------- 0 0.0 2.0 124 124
- 0.72 0 1 cbr 75 ------- 0 0.0 2.0 124 124
r 0.7206 0 1 cbr 75 ------- 0 0.0 2.0 114 114
+ 0.7206 1 2 cbr 75 ------- 0 0.0 2.0 114 114
d 0.7206 1 2 cbr 75 ------- 0 0.0 2.0 114 114
- 0.7206 1 2 cbr 75 ------- 0 0.0 2.0 104 104
+ 0.725 0 1 cbr 75 ------- 0 0.0 2.0 125 125
- 0.725 0 1 cbr 75 ------- 0 0.0 2.0 125 125
r 0.7256 0 1 cbr 75 ------- 0 0.0 2.0 115 115
+ 0.7256 1 2 cbr 75 ------- 0 0.0 2.0 115 115
r 0.7256 1 2 cbr 75 ------- 0 0.0 2.0 103 103
- 0.7266 1 2 cbr 75 ------- 0 0.0 2.0 105 105
+ 0.73 0 1 cbr 75 ------- 0 0.0 2.0 126 126
- 0.73 0 1 cbr 75 ------- 0 0.0 2.0 126 126