+ 0.1 0 1 cbr 100 ------- 0 0.0 2.0 0 0
- 0.1 0 1 cbr 100 ------- 0 0.0 2.0 0 0
+ 0.105 0 1 cbr 100 ------- 0 0.0 2.0 1 1
- 0.105 0 1 cbr 100 ------- 0 0.0 2.0 1 1
+ 0.11 0 1 cbr 100 ------- 0 0.0 2.0 2 2
- 0.11 0 1 cbr 100 ------- 0 0.0 2.0 2 2
+ 0.115 0 1 cbr 100 ------- 0 0.0 2.0 3 3
- 0.115 0 1 cbr 100 ------- 0 0.0 2.0 3 3
+ 0.12 0 1 cbr 100 ------- 0 0.0 2.0 4 4
- 0.12 0 1 cbr 100 ------- 0 0.0 2.0 4 4
+ 0.125 0 1 cbr 100 ------- 0 0.0 2.0 5 5
- 0.125 0 1 cbr 100 ------- 0 0.0 2.0 5 5
+ 0.13 0 1 cbr 100 ------- 0 0.0 2.0 6 6
- 0.13 0 1 cbr 100 ------- 0 0.0 2.0 6 6
+ 0.135 0 1 cbr 100 ------- 0 0.0 2.0 7 7
- 0.135 0 1 cbr 100 ------- 0 0.0 2.0 7 7
+ 0.14 0 1 cbr 100 ------- 0 0.0 2.0 8 8
- 0.14 0 1 cbr 100 ------- 0 0.0 2.0 8 8
+ 0.145 0 1 cbr 100 ------- 0 0.0 2.0 9 9
- 0.145 0 1 cbr 100 ------- 0 0.0 2.0 9 9
+ 0.15 0 1 cbr 100 ------- 0 0.0 2.0 10 10
- 0.15 0 1 cbr 100 ------- 0 0.0 2.0 10 10
r 0.1508 0 1 cbr 100 ------- 0 0.0 2.0 0 0
+ 0.1508 1 2 cbr 100 ------- 0 0.0 2.0 0 0
- 0.1508 1 2 cbr 100 ------- 0 0.0 2.0 0 0
+ 0.155 0 1 cbr 100 ------- 0 0.0 2.0 11 11
- 0.155 0 1 cbr 100 ------- 0 0.0 2.0 11 11
r 0.1558 0 1 cbr 100 ------- 0 0.0 2.0 1 1
+ 0.1558 1 2 cbr 100 ------- 0 0.0 2.0 1 1
- 0.1588 1 2 cbr 100 ------- 0 0.0 2.0 1 1
+ 0.16 0 1 cbr 100 ------- 0 0.0 2.0 12 12
- 0.16 0 1 cbr 100 ------- 0 0.0 2.0 12 12
r 0.1608 0 1 cbr 100 ------- 0 0.0 2.0 2 2
+ 0.1608 1 2 cbr 100 ------- 0 0.0 2.0 2 2
r 0.1638 1 2 cbr 100 ------- 0 0.0 2.0 0 0
+ 0.165 0 1 cbr 100 ------- 0 0.0 2.0 13 13
- 0.165 0 1 cbr 100 ------- 0 0.0 2.0 13 13
r 0.1658 0 1 cbr 100 ------- 0 0.0 2.0 3 3
+ 0.1658 1 2 cbr 100 ------- 0 0.0 2.0 3 3
- 0.1668 1 2 cbr 100 ------- 0 0.0 2.0 2 2
+ 0.17 0 1 cbr 100 ------- 0 0.0 2.0 14 14
- 0.17 0 1 cbr 100 ------- 0 0.0 2.0 14 14
r 0.1708 0 1 cbr 100 ------- 0 0.0 2.0 4 4
+ 0.1708 1 2 cbr 100 ------- 0 0.0 2.0 4 4
r 0.1718 1 2 cbr 100 ------- 0 0.0 2.0 1 1
- 0.1748 1 2 cbr 100 ------- 0 0.0 2.0 3 3
+ 0.175 0 1 cbr 100 ------- 0 0.0 2.0 15 15
- 0.175 0 1 cbr 100 ------- 0 0.0 2.0 15 15
r 0.1758 0 1 cbr 100 ------- 0 0.0 2.0 5 5
+ 0.1758 1 2 cbr 100 ------- 0 0.0 2.0 5 5
r 0.1798 1 2 cbr 100 ------- 0 0.0 2.0 2 2
+ 0.18 0 1 cbr 100 ------- 0 0.0 2.0 16 16
- 0.18 0 1 cbr 100 ------- 0 0.0 2.0 16 16
r 0.1808 0 1 cbr 100 ------- 0 0.0 2.0 6 6
+ 0.1808 1 2 cbr 100 ------- 0 0.0 2.0 6 6
- 0.1828 1 2 cbr 100 ------- 0 0.0 2.0 4 4
+ 0.185 0 1 cbr 100 ------- 0 0.0 2.0 17 17
- 0.185 0 1 cbr 100 ------- 0 0.0 2.0 17 17
r 0.1858 0 1 cbr 100 ------- 0 0.0 2.0 7 7
+ 0.1858 1 2 cbr 100 ------- 0 0.0 2.0 7 7
r 0.1878 1 2 cbr 100 ------- 0 0.0 2.0 3 3
+ 0.19 0 1 cbr 100 ------- 0 0.0 2.0 18 18
- 0.19 0 1 cbr 100 ------- 0 0.0 2.0 18 18
r 0.1908 0 1 cbr 100 ------- 0 0.0 2.0 8 8
+ 0.1908 1 2 cbr 100 ------- 0 0.0 2.0 8 8
- 0.1908 1 2 cbr 100 ------- 0 0.0 2.0 5 5
+ 0.195 0 1 cbr 100 ------- 0 0.0 2.0 19 19
- 0.195 0 1 cbr 100 ------- 0 0.0 2.0 19 19
r 0.1958 0 1 cbr 100 ------- 0 0.0 2.0 9 9
+ 0.1958 1 2 cbr 100 ------- 0 0.0 2.0 9 9
r 0.1958 1 2 cbr 100 ------- 0 0.0 2.0 4 4
- 0.1988 1 2 cbr 100 ------- 0 0.0 2.0 6 6
+ 0.2 0 1 cbr 100 ------- 0 0.0 2.0 20 20
- 0.2 0 1 cbr 100 ------- 0 0.0 2.0 20 20
r 0.2008 0 1 cbr 100 ------- 0 0.0 2.0 10 10
+ 0.2008 1 2 cbr 100 ------- 0 0.0 2.0 10 10
r 0.2038 1 2 cbr 100 ------- 0 0.0 2.0 5 5
+ 0.205 0 1 cbr 100 ------- 0 0.0 2.0 21 21
- 0.205 0 1 cbr 100 ------- 0 0.0 2.0 21 21
r 0.2058 0 1 cbr 100 ------- 0 0.0 2.0 11 11
+ 0.2058 1 2 cbr 100 ------- 0 0.0 2.0 11 11
- 0.2068 1 2 cbr 100 ------- 0 0.0 2.0 7 7
+ 0.21 0 1 cbr 100 ------- 0 0.0 2.0 22 22
- 0.21 0 1 cbr 100 ------- 0 0.0 2.0 22 22
r 0.2108 0 1 cbr 100 ------- 0 0.0 2.0 12 12
+ 0.2108 1 2 cbr 100 ------- 0 0.0 2.0 12 12
r 0.2118 1 2 cbr 100 ------- 0 0.0 2.0 6 6
- 0.2148 1 2 cbr 100 ------- 0 0.0 2.0 8 8
+ 0.215 0 1 cbr 100 ------- 0 0.0 2.0 23 23
- 0.215 0 1 cbr 100 ------- 0 0.0 2.0 23 23
r 0.2158 0 1 cbr 100 ------- 0 0.0 2.0 13 13
+ 0.2158 1 2 cbr 100 ------- 0 0.0 2.0 13 13
r 0.2198 1 2 cbr 100 ------- 0 0.0 2.0 7 7
+ 0.22 0 1 cbr 100 ------- 0 0.0 2.0 24 24
- 0.22 0 1 cbr 100 ------- 0 0.0 2.0 24 24
r 0.2208 0 1 cbr 100 ------- 0 0.0 2.0 14 14
+ 0.2208 1 2 cbr 100 ------- 0 0.0 2.0 14 14
- 0.2228 1 2 cbr 100 ------- 0 0.0 2.0 9 9
+ 0.225 0 1 cbr 100 ------- 0 0.0 2.0 25 25
- 0.225 0 1 cbr 100 ------- 0 0.0 2.0 25 25
r 0.2258 0 1 cbr 100 ------- 0 0.0 2.0 15 15
+ 0.2258 1 2 cbr 100 ------- 0 0.0 2.0 15 15
r 0.2278 1 2 cbr 100 ------- 0 0.0 2.0 8 8
+ 0.23 0 1 cbr 100 ------- 0 0.0 2.0 26 26
- 0.23 0 1 cbr 100 ------- 0 0.0 2.0 26 26
r 0.2308 0 1 cbr 100 ------- 0 0.0 2.0 16 16
+ 0.2308 1 2 cbr 100 ------- 0 0.0 2.0 16 16
- 0.2308 1 2 cbr 100 ------- 0 0.0 2.0 10 10
+ 0.235 0 1 cbr 100 ------- 0 0.0 2.0 27 27
- 0.235 0 1 cbr 100 ------- 0 0.0 2.0 27 27
r 0.2358 0 1 cbr 100 ------- 0 0.0 2.0 17 17
+ 0.2358 1 2 cbr 100 ------- 0 0.0 2.0 17 17
r 0.2358 1 2 cbr 100 ------- 0 0.0 2.0 9 9
- 0.2388 1 2 cbr 100 ------- 0 0.0 2.0 11 11
+ 0.24 0 1 cbr 100 ------- 0 0.0 2.0 28 28
- 0.24 0 1 cbr 100 ------- 0 0.0 2.0 28 28
r 0.2408 0 1 cbr 100 ------- 0 0.0 2.0 18 18
+ 0.2408 1 2 cbr 100 ------- 0 0.0 2.0 18 18
r 0.2438 1 2 cbr 100 ------- 0 0.0 2.0 10 10
+ 0.245 0 1 cbr 100 ------- 0 0.0 2.0 29 29
- 0.245 0 1 cbr 100 ------- 0 0.0 2.0 29 29
r 0.2458 0 1 cbr 100 ------- 0 0.0 2.0 19 19
+ 0.2458 1 2 cbr 100 ------- 0 0.0 2.0 19 19
- 0.2468 1 2 cbr 100 ------- 0 0.0 2.0 12 12
+ 0.25 0 1 cbr 100 ------- 0 0.0 2.0 30 30
- 0.25 0 1 cbr 100 ------- 0 0.0 2.0 30 30
r 0.2508 0 1 cbr 100 ------- 0 0.0 2.0 20 20
+ 0.2508 1 2 cbr 100 ------- 0 0.0 2.0 20 20
r 0.2518 1 2 cbr 100 ------- 0 0.0 2.0 11 11
- 0.2548 1 2 cbr 100 ------- 0 0.0 2.0 13 13
+ 0.255 0 1 cbr 100 ------- 0 0.0 2.0 31 31
- 0.255 0 1 cbr 100 ------- 0 0.0 2.0 31 31
r 0.2558 0 1 cbr 100 ------- 0 0.0 2.0 21 21
+ 0.2558 1 2 cbr 100 ------- 0 0.0 2.0 21 21
r 0.2598 1 2 cbr 100 ------- 0 0.0 2.0 12 12
+ 0.26 0 1 cbr 100 ------- 0 0.0 2.0 32 32
- 0.26 0 1 cbr 100 ------- 0 0.0 2.0 32 32
r 0.2608 0 1 cbr 100 ------- 0 0.0 2.0 22 22
+ 0.2608 1 2 cbr 100 ------- 0 0.0 2.0 22 22
- 0.2628 1 2 cbr 100 ------- 0 0.0 2.0 14 14
+ 0.265 0 1 cbr 100 ------- 0 0.0 2.0 33 33
- 0.265 0 1 cbr 100 ------- 0 0.0 2.0 33 33
r 0.2658 0 1 cbr 100 ------- 0 0.0 2.0 23 23
+ 0.2658 1 2 cbr 100 ------- 0 0.0 2.0 23 23
r 0.2678 1 2 cbr 100 ------- 0 0.0 2.0 13 13
+ 0.27 0 1 cbr 100 ------- 0 0.0 2.0 34 34
- 0.27 0 1 cbr 100 ------- 0 0.0 2.0 34 34
r 0.2708 0 1 cbr 100 ------- 0 0.0 2.0 24 24
+ 0.2708 1 2 cbr 100 ------- 0 0.0 2.0 24 24
d 0.2708 1 2 cbr 100 ------- 0 0.0 2.0 24 24
- 0.2708 1 2 cbr 100 ------- 0 0.0 2.0 15 15
+ 0.275 0 1 cbr 100 ------- 0 0.0 2.0 35 35
- 0.275 0 1 cbr 100 ------- 0 0.0 2.0 35 35
r 0.2758 0 1 cbr 100 ------- 0 0.0 2.0 25 25
+ 0.2758 1 2 cbr 100 ------- 0 0.0 2.0 25 25
r 0.2758 1 2 cbr 100 ------- 0 0.0 2.0 14 14
- 0.2788 1 2 cbr 100 ------- 0 0.0 2.0 16 16
+ 0.28 0 1 cbr 100 ------- 0 0.0 2.0 36 36
- 0.28 0 1 cbr 100 ------- 0 0.0 2.0 36 36
r 0.2808 0 1 cbr 100 ------- 0 0.0 2.0 26 26
+ 0.2808 1 2 cbr 100 ------- 0 0.0 2.0 26 26
r 0.2838 1 2 cbr 100 ------- 0 0.0 2.0 15 15
+ 0.285 0 1 cbr 100 ------- 0 0.0 2.0 37 37
- 0.285 0 1 cbr 100 ------- 0 0.0 2.0 37 37
r 0.2858 0 1 cbr 100 ------- 0 0.0 2.0 27 27
+ 0.2858 1 2 cbr 100 ------- 0 0.0 2.0 27 27
d 0.2858 1 2 cbr 100 ------- 0 0.0 2.0 27 27
- 0.2868 1 2 cbr 100 ------- 0 0.0 2.0 17 17
+ 0.29 0 1 cbr 100 ------- 0 0.0 2.0 38 38
- 0.29 0 1 cbr 100 ------- 0 0.0 2.0 38 38
r 0.2908 0 1 cbr 100 ------- 0 0.0 2.0 28 28
+ 0.2908 1 2 cbr 100 ------- 0 0.0 2.0 28 28
r 0.2918 1 2 cbr 100 ------- 0 0.0 2.0 16 16
- 0.2948 1 2 cbr 100 ------- 0 0.0 2.0 18 18
+ 0.295 0 1 cbr 100 ------- 0 0.0 2.0 39 39
- 0.295 0 1 cbr 100 ------- 0 0.0 2.0 39 39
r 0.2958 0 1 cbr 100 ------- 0 0.0 2.0 29 29
+ 0.2958 1 2 cbr 100 ------- 0 0.0 2.0 29 29
r 0.2998 1 2 cbr 100 ------- 0 0.0 2.0 17 17
+ 0.3 0 1 cbr 100 ------- 0 0.0 2.0 40 40
- 0.3 0 1 cbr 100 ------- 0 0.0 2.0 40 40
r 0.3008 0 1 cbr 100 ------- 0 0.0 2.0 30 30
+ 0.3008 1 2 cbr 100 ------- 0 0.0 2.0 30 30
d 0.3008 1 2 cbr 100 ------- 0 0.0 2.0 30 30
- 0.3028 1 2 cbr 100 ------- 0 0.0 2.0 19 19
+ 0.305 0 1 cbr 100 ------- 0 0.0 2.0 41 41
- 0.305 0 1 cbr 100 ------- 0 0.0 2.0 41 41
r 0.3058 0 1 cbr 100 ------- 0 0.0 2.0 31 31
+ 0.3058 1 2 cbr 100 ------- 0 0.0 2.0 31 31
r 0.3078 1 2 cbr 100 ------- 0 0.0 2.0 18 18
+ 0.31 0 1 cbr 100 ------- 0 0.0 2.0 42 42
- 0.31 0 1 cbr 100 ------- 0 0.0 2.0 42 42
r 0.3108 0 1 cbr 100 ------- 0 0.0 2.0 32 32
+ 0.3108 1 2 cbr 100 ------- 0 0.0 2.0 32 32
d 0.3108 1 2 cbr 100 ------- 0 0.0 2.0 32 32
- 0.3108 1 2 cbr 100 ------- 0 0.0 2.0 20 20
+ 0.315 0 1 cbr 100 ------- 0 0.0 2.0 43 43
- 0.315 0 1 cbr 100 ------- 0 0.0 2.0 43 43
r 0.3158 0 1 cbr 100 ------- 0 0.0 2.0 33 33
+ 0.3158 1 2 cbr 100 ------- 0 0.0 2.0 33 33
r 0.3158 1 2 cbr 100 ------- 0 0.0 2.0 19 19
- 0.3188 1 2 cbr 100 ------- 0 0.0 2.0 21 21
+ 0.32 0 1 cbr 100 ------- 0 0.0 2.0 44 44
- 0.32 0 1 cbr 100 ------- 0 0.0 2.0 44 44
r 0.3208 0 1 cbr 100 ------- 0 0.0 2.0 34 34
+ 0.3208 1 2 cbr 100 ------- 0 0.0 2.0 34 34
r 0.3238 1 2 cbr 100 ------- 0 0.0 2.0 20 20
+ 0.325 0 1 cbr 100 ------- 0 0.0 2.0 45 45
- 0.325 0 1 cbr 100 ------- 0 0.0 2.0 45 45
r 0.3258 0 1 cbr 100 ------- 0 0.0 2.0 35 35
+ 0.3258 1 2 cbr 100 ------- 0 0.0 2.0 35 35
d 0.3258 1 2 cbr 100 ------- 0 0.0 2.0 35 35
- 0.3268 1 2 cbr 100 ------- 0 0.0 2.0 22 22
+ 0.33 0 1 cbr 100 ------- 0 0.0 2.0 46 46
- 0.33 0 1 cbr 100 ------- 0 0.0 2.0 46 46
r 0.3308 0 1 cbr 100 ------- 0 0.0 2.0 36 36
+ 0.3308 1 2 cbr 100 ------- 0 0.0 2.0 36 36
r 0.3318 1 2 cbr 100 ------- 0 0.0 2.0 21 21
- 0.3348 1 2 cbr 100 ------- 0 0.0 2.0 23 23
+ 0.335 0 1 cbr 100 ------- 0 0.0 2.0 47 47
- 0.335 0 1 cbr 100 ------- 0 0.0 2.0 47 47
r 0.3358 0 1 cbr 100 ------- 0 0.0 2.0 37 37
+ 0.3358 1 2 cbr 100 ------- 0 0.0 2.0 37 37
r 0.3398 1 2 cbr 100 ------- 0 0.0 2.0 22 22
+ 0.34 0 1 cbr 100 ------- 0 0.0 2.0 48 48
- 0.34 0 1 cbr 100 ------- 0 0.0 2.0 48 48
r 0.3408 0 1 cbr 100 ------- 0 0.0 2.0 38 38
+ 0.3408 1 2 cbr 100 ------- 0 0.0 2.0 38 38
d 0.3408 1 2 cbr 100 ------- 0 0.0 2.0 38 38
- 0.3428 1 2 cbr 100 ------- 0 0.0 2.0 25 25
+ 0.345 0 1 cbr 100 ------- 0 0.0 2.0 49 49
- 0.345 0 1 cbr 100 ------- 0 0.0 2.0 49 49
r 0.3458 0 1 cbr 100 ------- 0 0.0 2.0 39 39
+ 0.3458 1 2 cbr 100 ------- 0 0.0 2.0 39 39
r 0.3478 1 2 cbr 100 ------- 0 0.0 2.0 23 23
+ 0.35 0 1 cbr 100 ------- 0 0.0 2.0 50 50
- 0.35 0 1 cbr 100 ------- 0 0.0 2.0 50 50
r 0.3508 0 1 cbr 100 ------- 0 0.0 2.0 40 40
+ 0.3508 1 2 cbr 100 ------- 0 0.0 2.0 40 40
d 0.3508 1 2 cbr 100 ------- 0 0.0 2.0 40 40
- 0.3508 1 2 cbr 100 ------- 0 0.0 2.0 26 26
+ 0.355 0 1 cbr 100 ------- 0 0.0 2.0 51 51
- 0.355 0 1 cbr 100 ------- 0 0.0 2.0 51 51
r 0.3558 0 1 cbr 100 ------- 0 0.0 2.0 41 41
+ 0.3558 1 2 cbr 100 ------- 0 0.0 2.0 41 41
r 0.3558 1 2 cbr 100 ------- 0 0.0 2.0 25 25
- 0.3588 1 2 cbr 100 ------- 0 0.0 2.0 28 28
+ 0.36 0 1 cbr 100 ------- 0 0.0 2.0 52 52
- 0.36 0 1 cbr 100 ------- 0 0.0 2.0 52 52
r 0.3608 0 1 cbr 100 ------- 0 0.0 2.0 42 42
+ 0.3608 1 2 cbr 100 ------- 0 0.0 2.0 42 42
r 0.3638 1 2 cbr 100 ------- 0 0.0 2.0 26 26
+ 0.365 0 1 cbr 100 ------- 0 0.0 2.0 53 53
- 0.365 0 1 cbr 100 ------- 0 0.0 2.0 53 53
r 0.3658 0 1 cbr 100 ------- 0 0.0 2.0 43 43
+ 0.3658 1 2 cbr 100 ------- 0 0.0 2.0 43 43
d 0.3658 1 2 cbr 100 ------- 0 0.0 2.0 43 43
- 0.3668 1 2 cbr 100 ------- 0 0.0 2.0 29 29
+ 0.37 0 1 cbr 100 ------- 0 0.0 2.0 54 54
- 0.37 0 1 cbr 100 ------- 0 0.0 2.0 54 54
r 0.3708 0 1 cbr 100 ------- 0 0.0 2.0 44 44
+ 0.3708 1 2 cbr 100 ------- 0 0.0 2.0 44 44
r 0.3718 1 2 cbr 100 ------- 0 0.0 2.0 28 28
- 0.3748 1 2 cbr 100 ------- 0 0.0 2.0 31 31
+ 0.375 0 1 cbr 100 ------- 0 0.0 2.0 55 55
- 0.375 0 1 cbr 100 ------- 0 0.0 2.0 55 55
r 0.3758 0 1 cbr 100 ------- 0 0.0 2.0 45 45
+ 0.3758 1 2 cbr 100 ------- 0 0.0 2.0 45 45
r 0.3798 1 2 cbr 100 ------- 0 0.0 2.0 29 29
+ 0.38 0 1 cbr 100 ------- 0 0.0 2.0 56 56
- 0.38 0 1 cbr 100 ------- 0 0.0 2.0 56 56
r 0.3808 0 1 cbr 100 ------- 0 0.0 2.0 46 46
+ 0.3808 1 2 cbr 100 ------- 0 0.0 2.0 46 46
d 0.3808 1 2 cbr 100 ------- 0 0.0 2.0 46 46
- 0.3828 1 2 cbr 100 ------- 0 0.0 2.0 33 33
+ 0.385 0 1 cbr 100 ------- 0 0.0 2.0 57 57
- 0.385 0 1 cbr 100 ------- 0 0.0 2.0 57 57
r 0.3858 0 1 cbr 100 ------- 0 0.0 2.0 47 47
+ 0.3858 1 2 cbr 100 ------- 0 0.0 2.0 47 47
r 0.3878 1 2 cbr 100 ------- 0 0.0 2.0 31 31
+ 0.39 0 1 cbr 100 ------- 0 0.0 2.0 58 58
- 0.39 0 1 cbr 100 ------- 0 0.0 2.0 58 58
r 0.3908 0 1 cbr 100 ------- 0 0.0 2.0 48 48
+ 0.3908 1 2 cbr 100 ------- 0 0.0 2.0 48 48
d 0.3908 1 2 cbr 100 ------- 0 0.0 2.0 48 48
- 0.3908 1 2 cbr 100 ------- 0 0.0 2.0 34 34
+ 0.395 0 1 cbr 100 ------- 0 0.0 2.0 59 59
- 0.395 0 1 cbr 100 ------- 0 0.0 2.0 59 59
r 0.3958 0 1 cbr 100 ------- 0 0.0 2.0 49 49
+ 0.3958 1 2 cbr 100 ------- 0 0.0 2.0 49 49
r 0.3958 1 2 cbr 100 ------- 0 0.0 2.0 33 33
- 0.3988 1 2 cbr 100 ------- 0 0.0 2.0 36 36
+ 0.4 0 1 cbr 100 ------- 0 0.0 2.0 60 60
- 0.4 0 1 cbr 100 ------- 0 0.0 2.0 60 60
r 0.4008 0 1 cbr 100 ------- 0 0.0 2.0 50 50
+ 0.4008 1 2 cbr 100 ------- 0 0.0 2.0 50 50
r 0.4038 1 2 cbr 100 ------- 0 0.0 2.0 34 34
+ 0.405 0 1 cbr 100 ------- 0 0.0 2.0 61 61
- 0.405 0 1 cbr 100 ------- 0 0.0 2.0 61 61
r 0.4058 0 1 cbr 100 ------- 0 0.0 2.0 51 51
+ 0.4058 1 2 cbr 100 ------- 0 0.0 2.0 51 51
d 0.4058 1 2 cbr 100 ------- 0 0.0 2.0 51 51
- 0.4068 1 2 cbr 100 ------- 0 0.0 2.0 37 37
+ 0.41 0 1 cbr 100 ------- 0 0.0 2.0 62 62
- 0.41 0 1 cbr 100 ------- 0 0.0 2.0 62 62
r 0.4108 0 1 cbr 100 ------- 0 0.0 2.0 52 52
+ 0.4108 1 2 cbr 100 ------- 0 0.0 2.0 52 52
r 0.4118 1 2 cbr 100 ------- 0 0.0 2.0 36 36
- 0.4148 1 2 cbr 100 ------- 0 0.0 2.0 39 39
+ 0.415 0 1 cbr 100 ------- 0 0.0 2.0 63 63
- 0.415 0 1 cbr 100 ------- 0 0.0 2.0 63 63
r 0.4158 0 1 cbr 100 ------- 0 0.0 2.0 53 53
+ 0.4158 1 2 cbr 100 ------- 0 0.0 2.0 53 53
r 0.4198 1 2 cbr 100 ------- 0 0.0 2.0 37 37
+ 0.42 0 1 cbr 100 ------- 0 0.0 2.0 64 64
- 0.42 0 1 cbr 100 ------- 0 0.0 2.0 64 64
r 0.4208 0 1 cbr 100 ------- 0 0.0 2.0 54 54
+ 0.4208 1 2 cbr 100 ------- 0 0.0 2.0 54 54
d 0.4208 1 2 cbr 100 ------- 0 0.0 2.0 54 54
- 0.4228 1 2 cbr 100 ------- 0 0.0 2.0 41 41
+ 0.425 0 1 cbr 100 ------- 0 0.0 2.0 65 65
- 0.425 0 1 cbr 100 ------- 0 0.0 2.0 65 65
r 0.4258 0 1 cbr 100 ------- 0 0.0 2.0 55 55
+ 0.4258 1 2 cbr 100 ------- 0 0.0 2.0 55 55
r 0.4278 1 2 cbr 100 ------- 0 0.0 2.0 39 39
+ 0.43 0 1 cbr 100 ------- 0 0.0 2.0 66 66
- 0.43 0 1 cbr 100 ------- 0 0.0 2.0 66 66
r 0.4308 0 1 cbr 100 ------- 0 0.0 2.0 56 56
+ 0.4308 1 2 cbr 100 ------- 0 0.0 2.0 56 56
d 0.4308 1 2 cbr 100 ------- 0 0.0 2.0 56 56
- 0.4308 1 2 cbr 100 ------- 0 0.0 2.0 42 42
+ 0.435 0 1 cbr 100 ------- 0 0.0 2.0 67 67
- 0.435 0 1 cbr 100 ------- 0 0.0 2.0 67 67
r 0.4358 0 1 cbr 100 ------- 0 0.0 2.0 57 57
+ 0.4358 1 2 cbr 100 ------- 0 0.0 2.0 57 57
r 0.4358 1 2 cbr 100 ------- 0 0.0 2.0 41 41
- 0.4388 1 2 cbr 100 ------- 0 0.0 2.0 44 44
+ 0.44 0 1 cbr 100 ------- 0 0.0 2.0 68 68
- 0.44 0 1 cbr 100 ------- 0 0.0 2.0 68 68
r 0.4408 0 1 cbr 100 ------- 0 0.0 2.0 58 58
+ 0.4408 1 2 cbr 100 ------- 0 0.0 2.0 58 58
r 0.4438 1 2 cbr 100 ------- 0 0.0 2.0 42 42
+ 0.445 0 1 cbr 100 ------- 0 0.0 2.0 69 69
- 0.445 0 1 cbr 100 ------- 0 0.0 2.0 69 69
r 0.4458 0 1 cbr 100 ------- 0 0.0 2.0 59 59
+ 0.4458 1 2 cbr 100 ------- 0 0.0 2.0 59 59
d 0.4458 1 2 cbr 100 ------- 0 0.0 2.0 59 59
- 0.4468 1 2 cbr 100 ------- 0 0.0 2.0 45 45
+ 0.45 0 1 cbr 100 ------- 0 0.0 2.0 70 70
- 0.45 0 1 cbr 100 ------- 0 0.0 2.0 70 70
r 0.4508 0 1 cbr 100 ------- 0 0.0 2.0 60 60
+ 0.4508 1 2 cbr 100 ------- 0 0.0 2.0 60 60
r 0.4518 1 2 cbr 100 ------- 0 0.0 2.0 44 44
- 0.4548 1 2 cbr 100 ------- 0 0.0 2.0 47 47
+ 0.455 0 1 cbr 100 ------- 0 0.0 2.0 71 71
- 0.455 0 1 cbr 100 ------- 0 0.0 2.0 71 71
r 0.4558 0 1 cbr 100 ------- 0 0.0 2.0 61 61
+ 0.4558 1 2 cbr 100 ------- 0 0.0 2.0 61 61
r 0.4598 1 2 cbr 100 ------- 0 0.0 2.0 45 45
+ 0.46 0 1 cbr 100 ------- 0 0.0 2.0 72 72
- 0.46 0 1 cbr 100 ------- 0 0.0 2.0 72 72
r 0.4608 0 1 cbr 100 ------- 0 0.0 2.0 62 62
+ 0.4608 1 2 cbr 100 ------- 0 0.0 2.0 62 62
d 0.4608 1 2 cbr 100 ------- 0 0.0 2.0 62 62
- 0.4628 1 2 cbr 100 ------- 0 0.0 2.0 49 49
+ 0.465 0 1 cbr 100 ------- 0 0.0 2.0 73 73
- 0.465 0 1 cbr 100 ------- 0 0.0 2.0 73 73
r 0.4658 0 1 cbr 100 ------- 0 0.0 2.0 63 63
+ 0.4658 1 2 cbr 100 ------- 0 0.0 2.0 63 63
r 0.4678 1 2 cbr 100 ------- 0 0.0 2.0 47 47
+ 0.47 0 1 cbr 100 ------- 0 0.0 2.0 74 74
- 0.47 0 1 cbr 100 ------- 0 0.0 2.0 74 74
r 0.4708 0 1 cbr 100 ------- 0 0.0 2.0 64 64
+ 0.4708 1 2 cbr 100 ------- 0 0.0 2.0 64 64
d 0.4708 1 2 cbr 100 ------- 0 0.0 2.0 64 64
- 0.4708 1 2 cbr 100 ------- 0 0.0 2.0 50 50
+ 0.475 0 1 cbr 100 ------- 0 0.0 2.0 75 75
- 0.475 0 1 cbr 100 ------- 0 0.0 2.0 75 75
r 0.4758 0 1 cbr 100 ------- 0 0.0 2.0 65 65
+ 0.4758 1 2 cbr 100 ------- 0 0.0 2.0 65 65
r 0.4758 1 2 cbr 100 ------- 0 0.0 2.0 49 49
- 0.4788 1 2 cbr 100 ------- 0 0.0 2.0 52 52
+ 0.48 0 1 cbr 100 ------- 0 0.0 2.0 76 76
- 0.48 0 1 cbr 100 ------- 0 0.0 2.0 76 76
r 0.4808 0 1 cbr 100 ------- 0 0.0 2.0 66 66
+ 0.4808 1 2 cbr 100 ------- 0 0.0 2.0 66 66
r 0.4838 1 2 cbr 100 ------- 0 0.0 2.0 50 50
+ 0.485 0 1 cbr 100 ------- 0 0.0 2.0 77 77
- 0.485 0 1 cbr 100 ------- 0 0.0 2.0 77 77
r 0.4858 0 1 cbr 100 ------- 0 0.0 2.0 67 67
+ 0.4858 1 2 cbr 100 ------- 0 0.0 2.0 67 67
d 0.4858 1 2 cbr 100 ------- 0 0.0 2.0 67 67
- 0.4868 1 2 cbr 100 ------- 0 0.0 2.0 53 53
+ 0.49 0 1 cbr 100 ------- 0 0.0 2.0 78 78
- 0.49 0 1 cbr 100 ------- 0 0.0 2.0 78 78
r 0.4908 0 1 cbr 100 ------- 0 0.0 2.0 68 68
+ 0.4908 1 2 cbr 100 ------- 0 0.0 2.0 68 68
r 0.4918 1 2 cbr 100 ------- 0 0.0 2.0 52 52
- 0.4948 1 2 cbr 100 ------- 0 0.0 2.0 55 55
+ 0.495 0 1 cbr 100 ------- 0 0.0 2.0 79 79
- 0.495 0 1 cbr 100 ------- 0 0.0 2.0 79 79
r 0.4958 0 1 cbr 100 ------- 0 0.0 2.0 69 69
+ 0.4958 1 2 cbr 100 ------- 0 0.0 2.0 69 69
r 0.4998 1 2 cbr 100 ------- 0 0.0 2.0 53 53
+ 0.5 0 1 cbr 100 ------- 0 0.0 2.0 80 80
- 0.5 0 1 cbr 100 ------- 0 0.0 2.0 80 80
r 0.5008 0 1 cbr 100 ------- 0 0.0 2.0 70 70
+ 0.5008 1 2 cbr 100 ------- 0 0.0 2.0 70 70
d 0.5008 1 2 cbr 100 ------- 0 0.0 2.0 70 70
- 0.5028 1 2 cbr 100 ------- 0 0.0 2.0 57 57
+ 0.505 0 1 cbr 100 ------- 0 0.0 2.0 81 81
- 0.505 0 1 cbr 100 ------- 0 0.0 2.0 81 81
r 0.5058 0 1 cbr 100 ------- 0 0.0 2.0 71 71
+ 0.5058 1 2 cbr 100 ------- 0 0.0 2.0 71 71
r 0.5078 1 2 cbr 100 ------- 0 0.0 2.0 55 55
+ 0.51 0 1 cbr 100 ------- 0 0.0 2.0 82 82
- 0.51 0 1 cbr 100 ------- 0 0.0 2.0 82 82
r 0.5108 0 1 cbr 100 ------- 0 0.0 2.0 72 72
+ 0.5108 1 2 cbr 100 ------- 0 0.0 2.0 72 72
d 0.5108 1 2 cbr 100 ------- 0 0.0 2.0 72 72
- 0.5108 1 2 cbr 100 ------- 0 0.0 2.0 58 58
+ 0.515 0 1 cbr 100 ------- 0 0.0 2.0 83 83
- 0.515 0 1 cbr 100 ------- 0 0.0 2.0 83 83
r 0.5158 0 1 cbr 100 ------- 0 0.0 2.0 73 73
+ 0.5158 1 2 cbr 100 ------- 0 0.0 2.0 73 73
r 0.5158 1 2 cbr 100 ------- 0 0.0 2.0 57 57
- 0.5188 1 2 cbr 100 ------- 0 0.0 2.0 60 60
+ 0.52 0 1 cbr 100 ------- 0 0.0 2.0 84 84
- 0.52 0 1 cbr 100 ------- 0 0.0 2.0 84 84
r 0.5208 0 1 cbr 100 ------- 0 0.0 2.0 74 74
+ 0.5208 1 2 cbr 100 ------- 0 0.0 2.0 74 74
r 0.5238 1 2 cbr 100 ------- 0 0.0 2.0 58 58
+ 0.525 0 1 cbr 100 ------- 0 0.0 2.0 85 85
- 0.525 0 1 cbr 100 ------- 0 0.0 2.0 85 85
r 0.5258 0 1 cbr 100 ------- 0 0.0 2.0 75 75
+ 0.5258 1 2 cbr 100 ------- 0 0.0 2.0 75 75
d 0.5258 1 2 cbr 100 ------- 0 0.0 2.0 75 75
- 0.5268 1 2 cbr 100 ------- 0 0.0 2.0 61 61
+ 0.53 0 1 cbr 100 ------- 0 0.0 2.0 86 86
- 0.53 0 1 cbr 100 ------- 0 0.0 2.0 86 86
r 0.5308 0 1 cbr 100 ------- 0 0.0 2.0 76 76
+ 0.5308 1 2 cbr 100 ------- 0 0.0 2.0 76 76
r 0.5318 1 2 cbr 100 ------- 0 0.0 2.0 60 60
- 0.5348 1 2 cbr 100 ------- 0 0.0 2.0 63 63
+ 0.535 0 1 cbr 100 ------- 0 0.0 2.0 87 87
- 0.535 0 1 cbr 100 ------- 0 0.0 2.0 87 87
r 0.5358 0 1 cbr 100 ------- 0 0.0 2.0 77 77
+ 0.5358 1 2 cbr 100 ------- 0 0.0 2.0 77 77
r 0.5398 1 2 cbr 100 ------- 0 0.0 2.0 61 61
+ 0.54 0 1 cbr 100 ------- 0 0.0 2.0 88 88
- 0.54 0 1 cbr 100 ------- 0 0.0 2.0 88 88
r 0.5408 0 1 cbr 100 ------- 0 0.0 2.0 78 78
+ 0.5408 1 2 cbr 100 ------- 0 0.0 2.0 78 78
d 0.5408 1 2 cbr 100 ------- 0 0.0 2.0 78 78
- 0.5428 1 2 cbr 100 ------- 0 0.0 2.0 65 65
+ 0.545 0 1 cbr 100 ------- 0 0.0 2.0 89 89
- 0.545 0 1 cbr 100 ------- 0 0.0 2.0 89 89
r 0.5458 0 1 cbr 100 ------- 0 0.0 2.0 79 79
+ 0.5458 1 2 cbr 100 ------- 0 0.0 2.0 79 79
r 0.5478 1 2 cbr 100 ------- 0 0.0 2.0 63 63
+ 0.55 0 1 cbr 100 ------- 0 0.0 2.0 90 90
- 0.55 0 1 cbr 100 ------- 0 0.0 2.0 90 90
r 0.5508 0 1 cbr 100 ------- 0 0.0 2.0 80 80
+ 0.5508 1 2 cbr 100 ------- 0 0.0 2.0 80 80
d 0.5508 1 2 cbr 100 ------- 0 0.0 2.0 80 80
- 0.5508 1 2 cbr 100 ------- 0 0.0 2.0 66 66
+ 0.555 0 1 cbr 100 ------- 0 0.0 2.0 91 91
- 0.555 0 1 cbr 100 ------- 0 0.0 2.0 91 91
r 0.5558 0 1 cbr 100 ------- 0 0.0 2.0 81 81
+ 0.5558 1 2 cbr 100 ------- 0 0.0 2.0 81 81
r 0.5558 1 2 cbr 100 ------- 0 0.0 2.0 65 65
- 0.5588 1 2 cbr 100 ------- 0 0.0 2.0 68 68
+ 0.56 0 1 cbr 100 ------- 0 0.0 2.0 92 92
- 0.56 0 1 cbr 100 ------- 0 0.0 2.0 92 92
r 0.5608 0 1 cbr 100 ------- 0 0.0 2.0 82 82
+ 0.5608 1 2 cbr 100 ------- 0 0.0 2.0 82 82
r 0.5638 1 2 cbr 100 ------- 0 0.0 2.0 66 66
+ 0.565 0 1 cbr 100 ------- 0 0.0 2.0 93 93
- 0.565 0 1 cbr 100 ------- 0 0.0 2.0 93 93
r 0.5658 0 1 cbr 100 ------- 0 0.0 2.0 83 83
+ 0.5658 1 2 cbr 100 ------- 0 0.0 2.0 83 83
d 0.5658 1 2 cbr 100 ------- 0 0.0 2.0 83 83
- 0.5668 1 2 cbr 100 ------- 0 0.0 2.0 69 69
+ 0.57 0 1 cbr 100 ------- 0 0.0 2.0 94 94
- 0.57 0 1 cbr 100 ------- 0 0.0 2.0 94 94
r 0.5708 0 1 cbr 100 ------- 0 0.0 2.0 84 84
+ 0.5708 1 2 cbr 100 ------- 0 0.0 2.0 84 84
r 0.5718 1 2 cbr 100 ------- 0 0.0 2.0 68 68
- 0.5748 1 2 cbr 100 ------- 0 0.0 2.0 71 71
+ 0.575 0 1 cbr 100 ------- 0 0.0 2.0 95 95
- 0.575 0 1 cbr 100 ------- 0 0.0 2.0 95 95
r 0.5758 0 1 cbr 100 ------- 0 0.0 2.0 85 85
+ 0.5758 1 2 cbr 100 ------- 0 0.0 2.0 85 85
r 0.5798 1 2 cbr 100 ------- 0 0.0 2.0 69 69
+ 0.58 0 1 cbr 100 ------- 0 0.0 2.0 96 96
- 0.58 0 1 cbr 100 ------- 0 0.0 2.0 96 96
r 0.5808 0 1 cbr 100 ------- 0 0.0 2.0 86 86
+ 0.5808 1 2 cbr 100 ------- 0 0.0 2.0 86 86
d 0.5808 1 2 cbr 100 ------- 0 0.0 2.0 86 86
- 0.5828 1 2 cbr 100 ------- 0 0.0 2.0 73 73
+ 0.585 0 1 cbr 100 ------- 0 0.0 2.0 97 97
- 0.585 0 1 cbr 100 ------- 0 0.0 2.0 97 97
r 0.5858 0 1 cbr 100 ------- 0 0.0 2.0 87 87
+ 0.5858 1 2 cbr 100 ------- 0 0.0 2.0 87 87
r 0.5878 1 2 cbr 100 ------- 0 0.0 2.0 71 71
+ 0.59 0 1 cbr 100 ------- 0 0.0 2.0 98 98
- 0.59 0 1 cbr 100 ------- 0 0.0 2.0 98 98
r 0.5908 0 1 cbr 100 ------- 0 0.0 2.0 88 88
+ 0.5908 1 2 cbr 100 ------- 0 0.0 2.0 88 88
d 0.5908 1 2 cbr 100 ------- 0 0.0 2.0 88 88
- 0.5908 1 2 cbr 100 ------- 0 0.0 2.0 74 74
+ 0.595 0 1 cbr 100 ------- 0 0.0 2.0 99 99
- 0.595 0 1 cbr 100 ------- 0 0.0 2.0 99 99
r 0.5958 0 1 cbr 100 ------- 0 0.0 2.0 89 89
+ 0.5958 1 2 cbr 100 ------- 0 0.0 2.0 89 89
r 0.5958 1 2 cbr 100 ------- 0 0.0 2.0 73 73
- 0.5988 1 2 cbr 100 ------- 0 0.0 2.0 76 76
+ 0.6 0 1 cbr 100 ------- 0 0.0 2.0 100 100
- 0.6 0 1 cbr 100 ------- 0 0.0 2.0 100 100
r 0.6008 0 1 cbr 100 ------- 0 0.0 2.0 90 90
+ 0.6008 1 2 cbr 100 ------- 0 0.0 2.0 90 90
r 0.6038 1 2 cbr 100 ------- 0 0.0 2.0 74 74
+ 0.605 0 1 cbr 100 ------- 0 0.0 2.0 101 101
- 0.605 0 1 cbr 100 ------- 0 0.0 2.0 101 101
r 0.6058 0 1 cbr 100 ------- 0 0.0 2.0 91 91
+ 0.6058 1 2 cbr 100 ------- 0 0.0 2.0 91 91
d 0.6058 1 2 cbr 100 ------- 0 0.0 2.0 91 91
- 0.6068 1 2 cbr 100 ------- 0 0.0 2.0 77 77
+ 0.61 0 1 cbr 100 ------- 0 0.0 2.0 102 102
- 0.61 0 1 cbr 100 ------- 0 0.0 2.0 102 102
r 0.6108 0 1 cbr 100 ------- 0 0.0 2.0 92 92
+ 0.6108 1 2 cbr 100 ------- 0 0.0 2.0 92 92
r 0.6118 1 2 cbr 100 ------- 0 0.0 2.0 76 76
- 0.6148 1 2 cbr 100 ------- 0 0.0 2.0 79 79
+ 0.615 0 1 cbr 100 ------- 0 0.0 2.0 103 103
- 0.615 0 1 cbr 100 ------- 0 0.0 2.0 103 103
r 0.6158 0 1 cbr 100 ------- 0 0.0 2.0 93 93
+ 0.6158 1 2 cbr 100 ------- 0 0.0 2.0 93 93
r 0.6198 1 2 cbr 100 ------- 0 0.0 2.0 77 77
+ 0.62 0 1 cbr 100 ------- 0 0.0 2.0 104 104
- 0.62 0 1 cbr 100 ------- 0 0.0 2.0 104 104
r 0.6208 0 1 cbr 100 ------- 0 0.0 2.0 94 94
+ 0.6208 1 2 cbr 100 ------- 0 0.0 2.0 94 94
d 0.6208 1 2 cbr 100 ------- 0 0.0 2.0 94 94
- 0.6228 1 2 cbr 100 ------- 0 0.0 2.0 81 81
+ 0.625 0 1 cbr 100 ------- 0 0.0 2.0 105 105
- 0.625 0 1 cbr 100 ------- 0 0.0 2.0 105 105
r 0.6258 0 1 cbr 100 ------- 0 0.0 2.0 95 95
+ 0.6258 1 2 cbr 100 ------- 0 0.0 2.0 95 95
r 0.6278 1 2 cbr 100 ------- 0 0.0 2.0 79 79
+ 0.63 0 1 cbr 100 ------- 0 0.0 2.0 106 106
- 0.63 0 1 cbr 100 ------- 0 0.0 2.0 106 106
r 0.6308 0 1 cbr 100 ------- 0 0.0 2.0 96 96
+ 0.6308 1 2 cbr 100 ------- 0 0.0 2.0 96 96
d 0.6308 1 2 cbr 100 ------- 0 0.0 2.0 96 96
- 0.6308 1 2 cbr 100 ------- 0 0.0 2.0 82 82
+ 0.635 0 1 cbr 100 ------- 0 0.0 2.0 107 107
- 0.635 0 1 cbr 100 ------- 0 0.0 2.0 107 107
r 0.6358 0 1 cbr 100 ------- 0 0.0 2.0 97 97
+ 0.6358 1 2 cbr 100 ------- 0 0.0 2.0 97 97
r 0.6358 1 2 cbr 100 ------- 0 0.0 2.0 81 81
- 0.6388 1 2 cbr 100 ------- 0 0.0 2.0 84 84
+ 0.64 0 1 cbr 100 ------- 0 0.0 2.0 108 108
- 0.64 0 1 cbr 100 ------- 0 0.0 2.0 108 108
r 0.6408 0 1 cbr 100 ------- 0 0.0 2.0 98 98
+ 0.6408 1 2 cbr 100 ------- 0 0.0 2.0 98 98
r 0.6438 1 2 cbr 100 ------- 0 0.0 2.0 82 82
+ 0.645 0 1 cbr 100 ------- 0 0.0 2.0 109 109
- 0.645 0 1 cbr 100 ------- 0 0.0 2.0 109 109
r 0.6458 0 1 cbr 100 ------- 0 0.0 2.0 99 99
+ 0.6458 1 2 cbr 100 ------- 0 0.0 2.0 99 99
d 0.6458 1 2 cbr 100 ------- 0 0.0 2.0 99 99
- 0.6468 1 2 cbr 100 ------- 0 0.0 2.0 85 85
+ 0.65 0 1 cbr 100 ------- 0 0.0 2.0 110 110
- 0.65 0 1 cbr 100 ------- 0 0.0 2.0 110 110
r 0.6508 0 1 cbr 100 ------- 0 0.0 2.0 100 100
+ 0.6508 1 2 cbr 100 ------- 0 0.0 2.0 100 100
r 0.6518 1 2 cbr 100 ------- 0 0.0 2.0 84 84
- 0.6548 1 2 cbr 100 ------- 0 0.0 2.0 87 87
+ 0.655 0 1 cbr 100 ------- 0 0.0 2.0 111 111
- 0.655 0 1 cbr 100 ------- 0 0.0 2.0 111 111
r 0.6558 0 1 cbr 100 ------- 0 0.0 2.0 101 101
+ 0.6558 1 2 cbr 100 ------- 0 0.0 2.0 101 101
r 0.6598 1 2 cbr 100 ------- 0 0.0 2.0 85 85
+ 0.66 0 1 cbr 100 ------- 0 0.0 2.0 112 112
- 0.66 0 1 cbr 100 ------- 0 0.0 2.0 112 112
r 0.6608 0 1 cbr 100 ------- 0 0.0 2.0 102 102
+ 0.6608 1 2 cbr 100 ------- 0 0.0 2.0 102 102
d 0.6608 1 2 cbr 100 ------- 0 0.0 2.0 102 102
- 0.6628 1 2 cbr 100 ------- 0 0.0 2.0 89 89
+ 0.665 0 1 cbr 100 ------- 0 0.0 2.0 113 113
- 0.665 0 1 cbr 100 ------- 0 0.0 2.0 113 113
r 0.6658 0 1 cbr 100 ------- 0 0.0 2.0 103 103
+ 0.6658 1 2 cbr 100 ------- 0 0.0 2.0 103 103
r 0.6678 1 2 cbr 100 ------- 0 0.0 2.0 87 87
+ 0.67 0 1 cbr 100 ------- 0 0.0 2.0 114 114
- 0.67 0 1 cbr 100 ------- 0 0.0 2.0 114 114
r 0.6708 0 1 cbr 100 ------- 0 0.0 2.0 104 104
+ 0.6708 1 2 cbr 100 ------- 0 0.0 2.0 104 104
d 0.6708 1 2 cbr 100 ------- 0 0.0 2.0 104 104
- 0.6708 1 2 cbr 100 ------- 0 0.0 2.0 90 90
+ 0.675 0 1 cbr 100 ------- 0 0.0 2.0 115 115
- 0.675 0 1 cbr 100 ------- 0 0.0 2.0 115 115
r 0.6758 0 1 cbr 100 ------- 0 0.0 2.0 105 105
+ 0.6758 1 2 cbr 100 ------- 0 0.0 2.0 105 105
r 0.6758 1 2 cbr 100 ------- 0 0.0 2.0 89 89
- 0.6788 1 2 cbr 100 ------- 0 0.0 2.0 92 92
+ 0.68 0 1 cbr 100 ------- 0 0.0 2.0 116 116
- 0.68 0 1 cbr 100 ------- 0 0.0 2.0 116 116
r 0.6808 0 1 cbr 100 ------- 0 0.0 2.0 106 106
+ 0.6808 1 2 cbr 100 ------- 0 0.0 2.0 106 106
r 0.6838 1 2 cbr 100 ------- 0 0.0 2.0 90 90
+ 0.685 0 1 cbr 100 ------- 0 0.0 2.0 117 117
- 0.685 0 1 cbr 100 ------- 0 0.0 2.0 117 117
r 0.6858 0 1 cbr 100 ------- 0 0.0 2.0 107 107
+ 0.6858 1 2 cbr 100 ------- 0 0.0 2.0 107 107
d 0.6858 1 2 cbr 100 ------- 0 0.0 2.0 107 107
- 0.6868 1 2 cbr 100 ------- 0 0.0 2.0 93 93
+ 0.69 0 1 cbr 100 ------- 0 0.0 2.0 118 118
- 0.69 0 1 cbr 100 ------- 0 0.0 2.0 118 118
r 0.6908 0 1 cbr 100 ------- 0 0.0 2.0 108 108
+ 0.6908 1 2 cbr 100 ------- 0 0.0 2.0 108 108
r 0.6918 1 2 cbr 100 ------- 0 0.0 2.0 92 92
- 0.6948 1 2 cbr 100 ------- 0 0.0 2.0 95 95
+ 0.695 0 1 cbr 100 ------- 0 0.0 2.0 119 119
- 0.695 0 1 cbr 100 ------- 0 0.0 2.0 119 119
r 0.6958 0 1 cbr 100 ------- 0 0.0 2.0 109 109
+ 0.6958 1 2 cbr 100 ------- 0 0.0 2.0 109 109
r 0.6998 1 2 cbr 100 ------- 0 0.0 2.0 93 93
+ 0.7 0 1 cbr 100 ------- 0 0.0 2.0 120 120
- 0.7 0 1 cbr 100 ------- 0 0.0 2.0 120 120
r 0.7008 0 1 cbr 100 ------- 0 0.0 2.0 110 110
+ 0.7008 1 2 cbr 100 ------- 0 0.0 2.0 110 110
d 0.7008 1 2 cbr 100 ------- 0 0.0 2.0 110 110
- 0.7028 1 2 cbr 100 ------- 0 0.0 2.0 97 97
+ 0.705 0 1 cbr 100 ------- 0 0.0 2.0 121 121
- 0.705 0 1 cbr 100 ------- 0 0.0 2.0 121 121
r 0.7058 0 1 cbr 100 ------- 0 0.0 2.0 111 111
+ 0.7058 1 2 cbr 100 ------- 0 0.0 2.0 111 111
r 0.7078 1 2 cbr 100 ------- 0 0.0 2.0 95 95
+ 0.71 0 1 cbr 100 ------- 0 0.0 2.0 122 122
- 0.71 0 1 cbr 100 ------- 0 0.0 2.0 122 122
r 0.7108 0 1 cbr 100 ------- 0 0.0 2.0 112 112
+ 0.7108 1 2 cbr 100 ------- 0 0.0 2.0 112 112
d 0.7108 1 2 cbr 100 ------- 0 0.0 2.0 112 112
- 0.7108 1 2 cbr 100 ------- 0 0.0 2.0 98 98
+ 0.715 0 1 cbr 100 ------- 0 0.0 2.0 123 123
- 0.715 0 1 cbr 100 ------- 0 0.0 2.0 123 123
r 0.7158 0 1 cbr 100 ------- 0 0.0 2.0 113 113
+ 0.7158 1 2 cbr 100 ------- 0 0.0 2.0 113 113
r 0.7158 1 2 cbr 100 ------- 0 0.0 2.0 97 97
- 0.7188 1 2 cbr 100 ------- 0 0.0 2.0 100 100
+ 0.72 0 1 cbr 100 ------- 0 0.0 2.0 124 124
- 0.72 0 1 cbr 100 ------- 0 0.0 2.0 124 124
r 0.7208 0 1 cbr 100 ------- 0 0.0 2.0 114 114
+ 0.7208 1 2 cbr 100 ------- 0 0.0 2.0 114 114
r 0.7238 1 2 cbr 100 ------- 0 0.0 2.0 98 98
+ 0.725 0 1 cbr 100 ------- 0 0.0 2.0 125 125
- 0.725 0 1 cbr 100 ------- 0 0.0 2.0 125 125
r 0.7258 0 1 cbr 100 ------- 0 0.0 2.0 115 115
+ 0.7258 1 2 cbr 100 ------- 0 0.0 2.0 115 115
d 0.7258 1 2 cbr 100 ------- 0 0.0 2.0 115 115
- 0.7268 1 2 cbr 100 ------- 0 0.0 2.0 101 101
+ 0.73 0 1 cbr 100 ------- 0 0.0 2.0 126 126
- 0.73 0 1 cbr 100 ------- 0 0.0 2.0 126 126
r 0.7308 0 1 cbr 100 ------- 0 0.0 2.0 116 116
+ 0.7308 1 2 cbr 100 ------- 0 0.0 2.0 116 116
r 0.7318 1 2 cbr 100 ------- 0 0.0 2.0 100 100
- 0.7348 1 2 cbr 100 ------- 0 0.0 2.0 103 103
+ 0.735 0 1 cbr 100 ------- 0 0.0 2.0 127 127
- 0.735 0 1 cbr 100 ------- 0 0.0 2.0 127 127
r 0.7358 0 1 cbr 100 ------- 0 0.0 2.0 117 117
+ 0.7358 1 2 cbr 100 ------- 0 0.0 2.0 117 117