+ 0.1 0 1 cbr 50 ------- 0 0.0 2.0 0 0
- 0.1 0 1 cbr 50 ------- 0 0.0 2.0 0 0
+ 0.105 0 1 cbr 50 ------- 0 0.0 2.0 1 1
- 0.105 0 1 cbr 50 ------- 0 0.0 2.0 1 1
+ 0.11 0 1 cbr 50 ------- 0 0.0 2.0 2 2
- 0.11 0 1 cbr 50 ------- 0 0.0 2.0 2 2
+ 0.115 0 1 cbr 50 ------- 0 0.0 2.0 3 3
- 0.115 0 1 cbr 50 ------- 0 0.0 2.0 3 3
+ 0.12 0 1 cbr 50 ------- 0 0.0 2.0 4 4
- 0.12 0 1 cbr 50 ------- 0 0.0 2.0 4 4
+ 0.125 0 1 cbr 50 ------- 0 0.0 2.0 5 5
- 0.125 0 1 cbr 50 ------- 0 0.0 2.0 5 5
+ 0.13 0 1 cbr 50 ------- 0 0.0 2.0 6 6
- 0.13 0 1 cbr 50 ------- 0 0.0 2.0 6 6
+ 0.135 0 1 cbr 50 ------- 0 0.0 2.0 7 7
- 0.135 0 1 cbr 50 ------- 0 0.0 2.0 7 7
+ 0.14 0 1 cbr 50 ------- 0 0.0 2.0 8 8
- 0.14 0 1 cbr 50 ------- 0 0.0 2.0 8 8
+ 0.145 0 1 cbr 50 ------- 0 0.0 2.0 9 9
- 0.145 0 1 cbr 50 ------- 0 0.0 2.0 9 9
+ 0.15 0 1 cbr 50 ------- 0 0.0 2.0 10 10
- 0.15 0 1 cbr 50 ------- 0 0.0 2.0 10 10
r 0.1504 0 1 cbr 50 ------- 0 0.0 2.0 0 0
+ 0.1504 1 2 cbr 50 ------- 0 0.0 2.0 0 0
- 0.1504 1 2 cbr 50 ------- 0 0.0 2.0 0 0
+ 0.155 0 1 cbr 50 ------- 0 0.0 2.0 11 11
- 0.155 0 1 cbr 50 ------- 0 0.0 2.0 11 11
r 0.1554 0 1 cbr 50 ------- 0 0.0 2.0 1 1
+ 0.1554 1 2 cbr 50 ------- 0 0.0 2.0 1 1
- 0.1554 1 2 cbr 50 ------- 0 0.0 2.0 1 1
r 0.1594 1 2 cbr 50 ------- 0 0.0 2.0 0 0
+ 0.16 0 1 cbr 50 ------- 0 0.0 2.0 12 12
- 0.16 0 1 cbr 50 ------- 0 0.0 2.0 12 12
r 0.1604 0 1 cbr 50 ------- 0 0.0 2.0 2 2
+ 0.1604 1 2 cbr 50 ------- 0 0.0 2.0 2 2
- 0.1604 1 2 cbr 50 ------- 0 0.0 2.0 2 2
r 0.1644 1 2 cbr 50 ------- 0 0.0 2.0 1 1
+ 0.165 0 1 cbr 50 ------- 0 0.0 2.0 13 13
- 0.165 0 1 cbr 50 ------- 0 0.0 2.0 13 13
r 0.1654 0 1 cbr 50 ------- 0 0.0 2.0 3 3
+ 0.1654 1 2 cbr 50 ------- 0 0.0 2.0 3 3
- 0.1654 1 2 cbr 50 ------- 0 0.0 2.0 3 3
r 0.1694 1 2 cbr 50 ------- 0 0.0 2.0 2 2
+ 0.17 0 1 cbr 50 ------- 0 0.0 2.0 14 14
- 0.17 0 1 cbr 50 ------- 0 0.0 2.0 14 14
r 0.1704 0 1 cbr 50 ------- 0 0.0 2.0 4 4
+ 0.1704 1 2 cbr 50 ------- 0 0.0 2.0 4 4
- 0.1704 1 2 cbr 50 ------- 0 0.0 2.0 4 4
r 0.1744 1 2 cbr 50 ------- 0 0.0 2.0 3 3
+ 0.175 0 1 cbr 50 ------- 0 0.0 2.0 15 15
- 0.175 0 1 cbr 50 ------- 0 0.0 2.0 15 15
r 0.1754 0 1 cbr 50 ------- 0 0.0 2.0 5 5
+ 0.1754 1 2 cbr 50 ------- 0 0.0 2.0 5 5
- 0.1754 1 2 cbr 50 ------- 0 0.0 2.0 5 5
r 0.1794 1 2 cbr 50 ------- 0 0.0 2.0 4 4
+ 0.18 0 1 cbr 50 ------- 0 0.0 2.0 16 16
- 0.18 0 1 cbr 50 ------- 0 0.0 2.0 16 16
r 0.1804 0 1 cbr 50 ------- 0 0.0 2.0 6 6
+ 0.1804 1 2 cbr 50 ------- 0 0.0 2.0 6 6
- 0.1804 1 2 cbr 50 ------- 0 0.0 2.0 6 6
r 0.1844 1 2 cbr 50 ------- 0 0.0 2.0 5 5
+ 0.185 0 1 cbr 50 ------- 0 0.0 2.0 17 17
- 0.185 0 1 cbr 50 ------- 0 0.0 2.0 17 17
r 0.1854 0 1 cbr 50 ------- 0 0.0 2.0 7 7
+ 0.1854 1 2 cbr 50 ------- 0 0.0 2.0 7 7
- 0.1854 1 2 cbr 50 ------- 0 0.0 2.0 7 7
r 0.1894 1 2 cbr 50 ------- 0 0.0 2.0 6 6
+ 0.19 0 1 cbr 50 ------- 0 0.0 2.0 18 18
- 0.19 0 1 cbr 50 ------- 0 0.0 2.0 18 18
r 0.1904 0 1 cbr 50 ------- 0 0.0 2.0 8 8
+ 0.1904 1 2 cbr 50 ------- 0 0.0 2.0 8 8
- 0.1904 1 2 cbr 50 ------- 0 0.0 2.0 8 8
r 0.1944 1 2 cbr 50 ------- 0 0.0 2.0 7 7
+ 0.195 0 1 cbr 50 ------- 0 0.0 2.0 19 19
- 0.195 0 1 cbr 50 ------- 0 0.0 2.0 19 19
r 0.1954 0 1 cbr 50 ------- 0 0.0 2.0 9 9
+ 0.1954 1 2 cbr 50 ------- 0 0.0 2.0 9 9
- 0.1954 1 2 cbr 50 ------- 0 0.0 2.0 9 9
r 0.1994 1 2 cbr 50 ------- 0 0.0 2.0 8 8
+ 0.2 0 1 cbr 50 ------- 0 0.0 2.0 20 20
- 0.2 0 1 cbr 50 ------- 0 0.0 2.0 20 20
r 0.2004 0 1 cbr 50 ------- 0 0.0 2.0 10 10
+ 0.2004 1 2 cbr 50 ------- 0 0.0 2.0 10 10
- 0.2004 1 2 cbr 50 ------- 0 0.0 2.0 10 10
r 0.2044 1 2 cbr 50 ------- 0 0.0 2.0 9 9
+ 0.205 0 1 cbr 50 ------- 0 0.0 2.0 21 21
- 0.205 0 1 cbr 50 ------- 0 0.0 2.0 21 21
r 0.2054 0 1 cbr 50 ------- 0 0.0 2.0 11 11
+ 0.2054 1 2 cbr 50 ------- 0 0.0 2.0 11 11
- 0.2054 1 2 cbr 50 ------- 0 0.0 2.0 11 11
r 0.2094 1 2 cbr 50 ------- 0 0.0 2.0 10 10
+ 0.21 0 1 cbr 50 ------- 0 0.0 2.0 22 22
- 0.21 0 1 cbr 50 ------- 0 0.0 2.0 22 22
r 0.2104 0 1 cbr 50 ------- 0 0.0 2.0 12 12
+ 0.2104 1 2 cbr 50 ------- 0 0.0 2.0 12 12
- 0.2104 1 2 cbr 50 ------- 0 0.0 2.0 12 12
r 0.2144 1 2 cbr 50 ------- 0 0.0 2.0 11 11
+ 0.215 0 1 cbr 50 ------- 0 0.0 2.0 23 23
- 0.215 0 1 cbr 50 ------- 0 0.0 2.0 23 23
r 0.2154 0 1 cbr 50 ------- 0 0.0 2.0 13 13
+ 0.2154 1 2 cbr 50 ------- 0 0.0 2.0 13 13
- 0.2154 1 2 cbr 50 ------- 0 0.0 2.0 13 13
r 0.2194 1 2 cbr 50 ------- 0 0.0 2.0 12 12
+ 0.22 0 1 cbr 50 ------- 0 0.0 2.0 24 24
- 0.22 0 1 cbr 50 ------- 0 0.0 2.0 24 24
r 0.2204 0 1 cbr 50 ------- 0 0.0 2.0 14 14
+ 0.2204 1 2 cbr 50 ------- 0 0.0 2.0 14 14
- 0.2204 1 2 cbr 50 ------- 0 0.0 2.0 14 14
r 0.2244 1 2 cbr 50 ------- 0 0.0 2.0 13 13
+ 0.225 0 1 cbr 50 ------- 0 0.0 2.0 25 25
- 0.225 0 1 cbr 50 ------- 0 0.0 2.0 25 25
r 0.2254 0 1 cbr 50 ------- 0 0.0 2.0 15 15
+ 0.2254 1 2 cbr 50 ------- 0 0.0 2.0 15 15
- 0.2254 1 2 cbr 50 ------- 0 0.0 2.0 15 15
r 0.2294 1 2 cbr 50 ------- 0 0.0 2.0 14 14
+ 0.23 0 1 cbr 50 ------- 0 0.0 2.0 26 26
- 0.23 0 1 cbr 50 ------- 0 0.0 2.0 26 26
r 0.2304 0 1 cbr 50 ------- 0 0.0 2.0 16 16
+ 0.2304 1 2 cbr 50 ------- 0 0.0 2.0 16 16
- 0.2304 1 2 cbr 50 ------- 0 0.0 2.0 16 16
r 0.2344 1 2 cbr 50 ------- 0 0.0 2.0 15 15
+ 0.235 0 1 cbr 50 ------- 0 0.0 2.0 27 27
- 0.235 0 1 cbr 50 ------- 0 0.0 2.0 27 27
r 0.2354 0 1 cbr 50 ------- 0 0.0 2.0 17 17
+ 0.2354 1 2 cbr 50 ------- 0 0.0 2.0 17 17
- 0.2354 1 2 cbr 50 ------- 0 0.0 2.0 17 17
r 0.2394 1 2 cbr 50 ------- 0 0.0 2.0 16 16
+ 0.24 0 1 cbr 50 ------- 0 0.0 2.0 28 28
- 0.24 0 1 cbr 50 ------- 0 0.0 2.0 28 28
r 0.2404 0 1 cbr 50 ------- 0 0.0 2.0 18 18
+ 0.2404 1 2 cbr 50 ------- 0 0.0 2.0 18 18
- 0.2404 1 2 cbr 50 ------- 0 0.0 2.0 18 18
r 0.2444 1 2 cbr 50 ------- 0 0.0 2.0 17 17
+ 0.245 0 1 cbr 50 ------- 0 0.0 2.0 29 29
- 0.245 0 1 cbr 50 ------- 0 0.0 2.0 29 29
r 0.2454 0 1 cbr 50 ------- 0 0.0 2.0 19 19
+ 0.2454 1 2 cbr 50 ------- 0 0.0 2.0 19 19
- 0.2454 1 2 cbr 50 ------- 0 0.0 2.0 19 19
r 0.2494 1 2 cbr 50 ------- 0 0.0 2.0 18 18
+ 0.25 0 1 cbr 50 ------- 0 0.0 2.0 30 30
- 0.25 0 1 cbr 50 ------- 0 0.0 2.0 30 30
r 0.2504 0 1 cbr 50 ------- 0 0.0 2.0 20 20
+ 0.2504 1 2 cbr 50 ------- 0 0.0 2.0 20 20
- 0.2504 1 2 cbr 50 ------- 0 0.0 2.0 20 20
r 0.2544 1 2 cbr 50 ------- 0 0.0 2.0 19 19
+ 0.255 0 1 cbr 50 ------- 0 0.0 2.0 31 31
- 0.255 0 1 cbr 50 ------- 0 0.0 2.0 31 31
r 0.2554 0 1 cbr 50 ------- 0 0.0 2.0 21 21
+ 0.2554 1 2 cbr 50 ------- 0 0.0 2.0 21 21
- 0.2554 1 2 cbr 50 ------- 0 0.0 2.0 21 21
r 0.2594 1 2 cbr 50 ------- 0 0.0 2.0 20 20
+ 0.26 0 1 cbr 50 ------- 0 0.0 2.0 32 32
- 0.26 0 1 cbr 50 ------- 0 0.0 2.0 32 32
r 0.2604 0 1 cbr 50 ------- 0 0.0 2.0 22 22
+ 0.2604 1 2 cbr 50 ------- 0 0.0 2.0 22 22
- 0.2604 1 2 cbr 50 ------- 0 0.0 2.0 22 22
r 0.2644 1 2 cbr 50 ------- 0 0.0 2.0 21 21
+ 0.265 0 1 cbr 50 ------- 0 0.0 2.0 33 33
- 0.265 0 1 cbr 50 ------- 0 0.0 2.0 33 33
r 0.2654 0 1 cbr 50 ------- 0 0.0 2.0 23 23
+ 0.2654 1 2 cbr 50 ------- 0 0.0 2.0 23 23
- 0.2654 1 2 cbr 50 ------- 0 0.0 2.0 23 23
r 0.2694 1 2 cbr 50 ------- 0 0.0 2.0 22 22
+ 0.27 0 1 cbr 50 ------- 0 0.0 2.0 34 34
- 0.27 0 1 cbr 50 ------- 0 0.0 2.0 34 34
r 0.2704 0 1 cbr 50 ------- 0 0.0 2.0 24 24
+ 0.2704 1 2 cbr 50 ------- 0 0.0 2.0 24 24
- 0.2704 1 2 cbr 50 ------- 0 0.0 2.0 24 24
r 0.2744 1 2 cbr 50 ------- 0 0.0 2.0 23 23
+ 0.275 0 1 cbr 50 ------- 0 0.0 2.0 35 35
- 0.275 0 1 cbr 50 ------- 0 0.0 2.0 35 35
r 0.2754 0 1 cbr 50 ------- 0 0.0 2.0 25 25
+ 0.2754 1 2 cbr 50 ------- 0 0.0 2.0 25 25
- 0.2754 1 2 cbr 50 ------- 0 0.0 2.0 25 25
r 0.2794 1 2 cbr 50 ------- 0 0.0 2.0 24 24
+ 0.28 0 1 cbr 50 ------- 0 0.0 2.0 36 36
- 0.28 0 1 cbr 50 ------- 0 0.0 2.0 36 36
r 0.2804 0 1 cbr 50 ------- 0 0.0 2.0 26 26
+ 0.2804 1 2 cbr 50 ------- 0 0.0 2.0 26 26
- 0.2804 1 2 cbr 50 ------- 0 0.0 2.0 26 26
r 0.2844 1 2 cbr 50 ------- 0 0.0 2.0 25 25
+ 0.285 0 1 cbr 50 ------- 0 0.0 2.0 37 37
- 0.285 0 1 cbr 50 ------- 0 0.0 2.0 37 37
r 0.2854 0 1 cbr 50 ------- 0 0.0 2.0 27 27
+ 0.2854 1 2 cbr 50 ------- 0 0.0 2.0 27 27
- 0.2854 1 2 cbr 50 ------- 0 0.0 2.0 27 27
r 0.2894 1 2 cbr 50 ------- 0 0.0 2.0 26 26
+ 0.29 0 1 cbr 50 ------- 0 0.0 2.0 38 38
- 0.29 0 1 cbr 50 ------- 0 0.0 2.0 38 38
r 0.2904 0 1 cbr 50 ------- 0 0.0 2.0 28 28
+ 0.2904 1 2 cbr 50 ------- 0 0.0 2.0 28 28
- 0.2904 1 2 cbr 50 ------- 0 0.0 2.0 28 28
r 0.2944 1 2 cbr 50 ------- 0 0.0 2.0 27 27
+ 0.295 0 1 cbr 50 ------- 0 0.0 2.0 39 39
- 0.295 0 1 cbr 50 ------- 0 0.0 2.0 39 39
r 0.2954 0 1 cbr 50 ------- 0 0.0 2.0 29 29
+ 0.2954 1 2 cbr 50 ------- 0 0.0 2.0 29 29
- 0.2954 1 2 cbr 50 ------- 0 0.0 2.0 29 29
r 0.2994 1 2 cbr 50 ------- 0 0.0 2.0 28 28
+ 0.3 0 1 cbr 50 ------- 0 0.0 2.0 40 40
- 0.3 0 1 cbr 50 ------- 0 0.0 2.0 40 40
r 0.3004 0 1 cbr 50 ------- 0 0.0 2.0 30 30
+ 0.3004 1 2 cbr 50 ------- 0 0.0 2.0 30 30
- 0.3004 1 2 cbr 50 ------- 0 0.0 2.0 30 30
r 0.3044 1 2 cbr 50 ------- 0 0.0 2.0 29 29
+ 0.305 0 1 cbr 50 ------- 0 0.0 2.0 41 41
- 0.305 0 1 cbr 50 ------- 0 0.0 2.0 41 41
r 0.3054 0 1 cbr 50 ------- 0 0.0 2.0 31 31
+ 0.3054 1 2 cbr 50 ------- 0 0.0 2.0 31 31
- 0.3054 1 2 cbr 50 ------- 0 0.0 2.0 31 31
r 0.3094 1 2 cbr 50 ------- 0 0.0 2.0 30 30
+ 0.31 0 1 cbr 50 ------- 0 0.0 2.0 42 42
- 0.31 0 1 cbr 50 ------- 0 0.0 2.0 42 42
r 0.3104 0 1 cbr 50 ------- 0 0.0 2.0 32 32
+ 0.3104 1 2 cbr 50 ------- 0 0.0 2.0 32 32
- 0.3104 1 2 cbr 50 ------- 0 0.0 2.0 32 32
r 0.3144 1 2 cbr 50 ------- 0 0.0 2.0 31 31
+ 0.315 0 1 cbr 50 ------- 0 0.0 2.0 43 43
- 0.315 0 1 cbr 50 ------- 0 0.0 2.0 43 43
r 0.3154 0 1 cbr 50 ------- 0 0.0 2.0 33 33
+ 0.3154 1 2 cbr 50 ------- 0 0.0 2.0 33 33
- 0.3154 1 2 cbr 50 ------- 0 0.0 2.0 33 33
r 0.3194 1 2 cbr 50 ------- 0 0.0 2.0 32 32
+ 0.32 0 1 cbr 50 ------- 0 0.0 2.0 44 44
- 0.32 0 1 cbr 50 ------- 0 0.0 2.0 44 44
r 0.3204 0 1 cbr 50 ------- 0 0.0 2.0 34 34
+ 0.3204 1 2 cbr 50 ------- 0 0.0 2.0 34 34
- 0.3204 1 2 cbr 50 ------- 0 0.0 2.0 34 34
r 0.3244 1 2 cbr 50 ------- 0 0.0 2.0 33 33
+ 0.325 0 1 cbr 50 ------- 0 0.0 2.0 45 45
- 0.325 0 1 cbr 50 ------- 0 0.0 2.0 45 45
r 0.3254 0 1 cbr 50 ------- 0 0.0 2.0 35 35
+ 0.3254 1 2 cbr 50 ------- 0 0.0 2.0 35 35
- 0.3254 1 2 cbr 50 ------- 0 0.0 2.0 35 35
r 0.3294 1 2 cbr 50 ------- 0 0.0 2.0 34 34
+ 0.33 0 1 cbr 50 ------- 0 0.0 2.0 46 46
- 0.33 0 1 cbr 50 ------- 0 0.0 2.0 46 46
r 0.3304 0 1 cbr 50 ------- 0 0.0 2.0 36 36
+ 0.3304 1 2 cbr 50 ------- 0 0.0 2.0 36 36
- 0.3304 1 2 cbr 50 ------- 0 0.0 2.0 36 36
r 0.3344 1 2 cbr 50 ------- 0 0.0 2.0 35 35
+ 0.335 0 1 cbr 50 ------- 0 0.0 2.0 47 47
- 0.335 0 1 cbr 50 ------- 0 0.0 2.0 47 47
r 0.3354 0 1 cbr 50 ------- 0 0.0 2.0 37 37
+ 0.3354 1 2 cbr 50 ------- 0 0.0 2.0 37 37
- 0.3354 1 2 cbr 50 ------- 0 0.0 2.0 37 37
r 0.3394 1 2 cbr 50 ------- 0 0.0 2.0 36 36
+ 0.34 0 1 cbr 50 ------- 0 0.0 2.0 48 48
- 0.34 0 1 cbr 50 ------- 0 0.0 2.0 48 48
r 0.3404 0 1 cbr 50 ------- 0 0.0 2.0 38 38
+ 0.3404 1 2 cbr 50 ------- 0 0.0 2.0 38 38
- 0.3404 1 2 cbr 50 ------- 0 0.0 2.0 38 38
r 0.3444 1 2 cbr 50 ------- 0 0.0 2.0 37 37
+ 0.345 0 1 cbr 50 ------- 0 0.0 2.0 49 49
- 0.345 0 1 cbr 50 ------- 0 0.0 2.0 49 49
r 0.3454 0 1 cbr 50 ------- 0 0.0 2.0 39 39
+ 0.3454 1 2 cbr 50 ------- 0 0.0 2.0 39 39
- 0.3454 1 2 cbr 50 ------- 0 0.0 2.0 39 39
r 0.3494 1 2 cbr 50 ------- 0 0.0 2.0 38 38
+ 0.35 0 1 cbr 50 ------- 0 0.0 2.0 50 50
- 0.35 0 1 cbr 50 ------- 0 0.0 2.0 50 50
r 0.3504 0 1 cbr 50 ------- 0 0.0 2.0 40 40
+ 0.3504 1 2 cbr 50 ------- 0 0.0 2.0 40 40
- 0.3504 1 2 cbr 50 ------- 0 0.0 2.0 40 40
r 0.3544 1 2 cbr 50 ------- 0 0.0 2.0 39 39
+ 0.355 0 1 cbr 50 ------- 0 0.0 2.0 51 51
- 0.355 0 1 cbr 50 ------- 0 0.0 2.0 51 51
r 0.3554 0 1 cbr 50 ------- 0 0.0 2.0 41 41
+ 0.3554 1 2 cbr 50 ------- 0 0.0 2.0 41 41
- 0.3554 1 2 cbr 50 ------- 0 0.0 2.0 41 41
r 0.3594 1 2 cbr 50 ------- 0 0.0 2.0 40 40
+ 0.36 0 1 cbr 50 ------- 0 0.0 2.0 52 52
- 0.36 0 1 cbr 50 ------- 0 0.0 2.0 52 52
r 0.3604 0 1 cbr 50 ------- 0 0.0 2.0 42 42
+ 0.3604 1 2 cbr 50 ------- 0 0.0 2.0 42 42
- 0.3604 1 2 cbr 50 ------- 0 0.0 2.0 42 42
r 0.3644 1 2 cbr 50 ------- 0 0.0 2.0 41 41
+ 0.365 0 1 cbr 50 ------- 0 0.0 2.0 53 53
- 0.365 0 1 cbr 50 ------- 0 0.0 2.0 53 53
r 0.3654 0 1 cbr 50 ------- 0 0.0 2.0 43 43
+ 0.3654 1 2 cbr 50 ------- 0 0.0 2.0 43 43
- 0.3654 1 2 cbr 50 ------- 0 0.0 2.0 43 43
r 0.3694 1 2 cbr 50 ------- 0 0.0 2.0 42 42
+ 0.37 0 1 cbr 50 ------- 0 0.0 2.0 54 54
- 0.37 0 1 cbr 50 ------- 0 0.0 2.0 54 54
r 0.3704 0 1 cbr 50 ------- 0 0.0 2.0 44 44
+ 0.3704 1 2 cbr 50 ------- 0 0.0 2.0 44 44
- 0.3704 1 2 cbr 50 ------- 0 0.0 2.0 44 44
r 0.3744 1 2 cbr 50 ------- 0 0.0 2.0 43 43
+ 0.375 0 1 cbr 50 ------- 0 0.0 2.0 55 55
- 0.375 0 1 cbr 50 ------- 0 0.0 2.0 55 55
r 0.3754 0 1 cbr 50 ------- 0 0.0 2.0 45 45
+ 0.3754 1 2 cbr 50 ------- 0 0.0 2.0 45 45
- 0.3754 1 2 cbr 50 ------- 0 0.0 2.0 45 45
r 0.3794 1 2 cbr 50 ------- 0 0.0 2.0 44 44
+ 0.38 0 1 cbr 50 ------- 0 0.0 2.0 56 56
- 0.38 0 1 cbr 50 ------- 0 0.0 2.0 56 56
r 0.3804 0 1 cbr 50 ------- 0 0.0 2.0 46 46
+ 0.3804 1 2 cbr 50 ------- 0 0.0 2.0 46 46
- 0.3804 1 2 cbr 50 ------- 0 0.0 2.0 46 46
r 0.3844 1 2 cbr 50 ------- 0 0.0 2.0 45 45
+ 0.385 0 1 cbr 50 ------- 0 0.0 2.0 57 57
- 0.385 0 1 cbr 50 ------- 0 0.0 2.0 57 57
r 0.3854 0 1 cbr 50 ------- 0 0.0 2.0 47 47
+ 0.3854 1 2 cbr 50 ------- 0 0.0 2.0 47 47
- 0.3854 1 2 cbr 50 ------- 0 0.0 2.0 47 47
r 0.3894 1 2 cbr 50 ------- 0 0.0 2.0 46 46
+ 0.39 0 1 cbr 50 ------- 0 0.0 2.0 58 58
- 0.39 0 1 cbr 50 ------- 0 0.0 2.0 58 58
r 0.3904 0 1 cbr 50 ------- 0 0.0 2.0 48 48
+ 0.3904 1 2 cbr 50 ------- 0 0.0 2.0 48 48
- 0.3904 1 2 cbr 50 ------- 0 0.0 2.0 48 48
r 0.3944 1 2 cbr 50 ------- 0 0.0 2.0 47 47
+ 0.395 0 1 cbr 50 ------- 0 0.0 2.0 59 59
- 0.395 0 1 cbr 50 ------- 0 0.0 2.0 59 59
r 0.3954 0 1 cbr 50 ------- 0 0.0 2.0 49 49
+ 0.3954 1 2 cbr 50 ------- 0 0.0 2.0 49 49
- 0.3954 1 2 cbr 50 ------- 0 0.0 2.0 49 49
r 0.3994 1 2 cbr 50 ------- 0 0.0 2.0 48 48
+ 0.4 0 1 cbr 50 ------- 0 0.0 2.0 60 60
- 0.4 0 1 cbr 50 ------- 0 0.0 2.0 60 60
r 0.4004 0 1 cbr 50 ------- 0 0.0 2.0 50 50
+ 0.4004 1 2 cbr 50 ------- 0 0.0 2.0 50 50
- 0.4004 1 2 cbr 50 ------- 0 0.0 2.0 50 50
r 0.4044 1 2 cbr 50 ------- 0 0.0 2.0 49 49
+ 0.405 0 1 cbr 50 ------- 0 0.0 2.0 61 61
- 0.405 0 1 cbr 50 ------- 0 0.0 2.0 61 61
r 0.4054 0 1 cbr 50 ------- 0 0.0 2.0 51 51
+ 0.4054 1 2 cbr 50 ------- 0 0.0 2.0 51 51
- 0.4054 1 2 cbr 50 ------- 0 0.0 2.0 51 51
r 0.4094 1 2 cbr 50 ------- 0 0.0 2.0 50 50
+ 0.41 0 1 cbr 50 ------- 0 0.0 2.0 62 62
- 0.41 0 1 cbr 50 ------- 0 0.0 2.0 62 62
r 0.4104 0 1 cbr 50 ------- 0 0.0 2.0 52 52
+ 0.4104 1 2 cbr 50 ------- 0 0.0 2.0 52 52
- 0.4104 1 2 cbr 50 ------- 0 0.0 2.0 52 52
r 0.4144 1 2 cbr 50 ------- 0 0.0 2.0 51 51
+ 0.415 0 1 cbr 50 ------- 0 0.0 2.0 63 63
- 0.415 0 1 cbr 50 ------- 0 0.0 2.0 63 63
r 0.4154 0 1 cbr 50 ------- 0 0.0 2.0 53 53
+ 0.4154 1 2 cbr 50 ------- 0 0.0 2.0 53 53
- 0.4154 1 2 cbr 50 ------- 0 0.0 2.0 53 53
r 0.4194 1 2 cbr 50 ------- 0 0.0 2.0 52 52
+ 0.42 0 1 cbr 50 ------- 0 0.0 2.0 64 64
- 0.42 0 1 cbr 50 ------- 0 0.0 2.0 64 64
r 0.4204 0 1 cbr 50 ------- 0 0.0 2.0 54 54
+ 0.4204 1 2 cbr 50 ------- 0 0.0 2.0 54 54
- 0.4204 1 2 cbr 50 ------- 0 0.0 2.0 54 54
r 0.4244 1 2 cbr 50 ------- 0 0.0 2.0 53 53
+ 0.425 0 1 cbr 50 ------- 0 0.0 2.0 65 65
- 0.425 0 1 cbr 50 ------- 0 0.0 2.0 65 65
r 0.4254 0 1 cbr 50 ------- 0 0.0 2.0 55 55
+ 0.4254 1 2 cbr 50 ------- 0 0.0 2.0 55 55
- 0.4254 1 2 cbr 50 ------- 0 0.0 2.0 55 55
r 0.4294 1 2 cbr 50 ------- 0 0.0 2.0 54 54
+ 0.43 0 1 cbr 50 ------- 0 0.0 2.0 66 66
- 0.43 0 1 cbr 50 ------- 0 0.0 2.0 66 66
r 0.4304 0 1 cbr 50 ------- 0 0.0 2.0 56 56
+ 0.4304 1 2 cbr 50 ------- 0 0.0 2.0 56 56
- 0.4304 1 2 cbr 50 ------- 0 0.0 2.0 56 56
r 0.4344 1 2 cbr 50 ------- 0 0.0 2.0 55 55
+ 0.435 0 1 cbr 50 ------- 0 0.0 2.0 67 67
- 0.435 0 1 cbr 50 ------- 0 0.0 2.0 67 67
r 0.4354 0 1 cbr 50 ------- 0 0.0 2.0 57 57
+ 0.4354 1 2 cbr 50 ------- 0 0.0 2.0 57 57
- 0.4354 1 2 cbr 50 ------- 0 0.0 2.0 57 57
r 0.4394 1 2 cbr 50 ------- 0 0.0 2.0 56 56
+ 0.44 0 1 cbr 50 ------- 0 0.0 2.0 68 68
- 0.44 0 1 cbr 50 ------- 0 0.0 2.0 68 68
r 0.4404 0 1 cbr 50 ------- 0 0.0 2.0 58 58
+ 0.4404 1 2 cbr 50 ------- 0 0.0 2.0 58 58
- 0.4404 1 2 cbr 50 ------- 0 0.0 2.0 58 58
r 0.4444 1 2 cbr 50 ------- 0 0.0 2.0 57 57
+ 0.445 0 1 cbr 50 ------- 0 0.0 2.0 69 69
- 0.445 0 1 cbr 50 ------- 0 0.0 2.0 69 69
r 0.4454 0 1 cbr 50 ------- 0 0.0 2.0 59 59
+ 0.4454 1 2 cbr 50 ------- 0 0.0 2.0 59 59
- 0.4454 1 2 cbr 50 ------- 0 0.0 2.0 59 59
r 0.4494 1 2 cbr 50 ------- 0 0.0 2.0 58 58
+ 0.45 0 1 cbr 50 ------- 0 0.0 2.0 70 70
- 0.45 0 1 cbr 50 ------- 0 0.0 2.0 70 70
r 0.4504 0 1 cbr 50 ------- 0 0.0 2.0 60 60
+ 0.4504 1 2 cbr 50 ------- 0 0.0 2.0 60 60
- 0.4504 1 2 cbr 50 ------- 0 0.0 2.0 60 60
r 0.4544 1 2 cbr 50 ------- 0 0.0 2.0 59 59
+ 0.455 0 1 cbr 50 ------- 0 0.0 2.0 71 71
- 0.455 0 1 cbr 50 ------- 0 0.0 2.0 71 71
r 0.4554 0 1 cbr 50 ------- 0 0.0 2.0 61 61
+ 0.4554 1 2 cbr 50 ------- 0 0.0 2.0 61 61
- 0.4554 1 2 cbr 50 ------- 0 0.0 2.0 61 61
r 0.4594 1 2 cbr 50 ------- 0 0.0 2.0 60 60
+ 0.46 0 1 cbr 50 ------- 0 0.0 2.0 72 72
- 0.46 0 1 cbr 50 ------- 0 0.0 2.0 72 72
r 0.4604 0 1 cbr 50 ------- 0 0.0 2.0 62 62
+ 0.4604 1 2 cbr 50 ------- 0 0.0 2.0 62 62
- 0.4604 1 2 cbr 50 ------- 0 0.0 2.0 62 62
r 0.4644 1 2 cbr 50 ------- 0 0.0 2.0 61 61
+ 0.465 0 1 cbr 50 ------- 0 0.0 2.0 73 73
- 0.465 0 1 cbr 50 ------- 0 0.0 2.0 73 73
r 0.4654 0 1 cbr 50 ------- 0 0.0 2.0 63 63
+ 0.4654 1 2 cbr 50 ------- 0 0.0 2.0 63 63
- 0.4654 1 2 cbr 50 ------- 0 0.0 2.0 63 63
r 0.4694 1 2 cbr 50 ------- 0 0.0 2.0 62 62
+ 0.47 0 1 cbr 50 ------- 0 0.0 2.0 74 74
- 0.47 0 1 cbr 50 ------- 0 0.0 2.0 74 74
r 0.4704 0 1 cbr 50 ------- 0 0.0 2.0 64 64
+ 0.4704 1 2 cbr 50 ------- 0 0.0 2.0 64 64
- 0.4704 1 2 cbr 50 ------- 0 0.0 2.0 64 64
r 0.4744 1 2 cbr 50 ------- 0 0.0 2.0 63 63
+ 0.475 0 1 cbr 50 ------- 0 0.0 2.0 75 75
- 0.475 0 1 cbr 50 ------- 0 0.0 2.0 75 75
r 0.4754 0 1 cbr 50 ------- 0 0.0 2.0 65 65
+ 0.4754 1 2 cbr 50 ------- 0 0.0 2.0 65 65
- 0.4754 1 2 cbr 50 ------- 0 0.0 2.0 65 65
r 0.4794 1 2 cbr 50 ------- 0 0.0 2.0 64 64
+ 0.48 0 1 cbr 50 ------- 0 0.0 2.0 76 76
- 0.48 0 1 cbr 50 ------- 0 0.0 2.0 76 76
r 0.4804 0 1 cbr 50 ------- 0 0.0 2.0 66 66
+ 0.4804 1 2 cbr 50 ------- 0 0.0 2.0 66 66
- 0.4804 1 2 cbr 50 ------- 0 0.0 2.0 66 66
r 0.4844 1 2 cbr 50 ------- 0 0.0 2.0 65 65
+ 0.485 0 1 cbr 50 ------- 0 0.0 2.0 77 77
- 0.485 0 1 cbr 50 ------- 0 0.0 2.0 77 77
r 0.4854 0 1 cbr 50 ------- 0 0.0 2.0 67 67
+ 0.4854 1 2 cbr 50 ------- 0 0.0 2.0 67 67
- 0.4854 1 2 cbr 50 ------- 0 0.0 2.0 67 67
r 0.4894 1 2 cbr 50 ------- 0 0.0 2.0 66 66
+ 0.49 0 1 cbr 50 ------- 0 0.0 2.0 78 78
- 0.49 0 1 cbr 50 ------- 0 0.0 2.0 78 78
r 0.4904 0 1 cbr 50 ------- 0 0.0 2.0 68 68
+ 0.4904 1 2 cbr 50 ------- 0 0.0 2.0 68 68
- 0.4904 1 2 cbr 50 ------- 0 0.0 2.0 68 68
r 0.4944 1 2 cbr 50 ------- 0 0.0 2.0 67 67
+ 0.495 0 1 cbr 50 ------- 0 0.0 2.0 79 79
- 0.495 0 1 cbr 50 ------- 0 0.0 2.0 79 79
r 0.4954 0 1 cbr 50 ------- 0 0.0 2.0 69 69
+ 0.4954 1 2 cbr 50 ------- 0 0.0 2.0 69 69
- 0.4954 1 2 cbr 50 ------- 0 0.0 2.0 69 69
r 0.4994 1 2 cbr 50 ------- 0 0.0 2.0 68 68
+ 0.5 0 1 cbr 50 ------- 0 0.0 2.0 80 80
- 0.5 0 1 cbr 50 ------- 0 0.0 2.0 80 80
r 0.5004 0 1 cbr 50 ------- 0 0.0 2.0 70 70
+ 0.5004 1 2 cbr 50 ------- 0 0.0 2.0 70 70
- 0.5004 1 2 cbr 50 ------- 0 0.0 2.0 70 70
r 0.5044 1 2 cbr 50 ------- 0 0.0 2.0 69 69
+ 0.505 0 1 cbr 50 ------- 0 0.0 2.0 81 81
- 0.505 0 1 cbr 50 ------- 0 0.0 2.0 81 81
r 0.5054 0 1 cbr 50 ------- 0 0.0 2.0 71 71
+ 0.5054 1 2 cbr 50 ------- 0 0.0 2.0 71 71
- 0.5054 1 2 cbr 50 ------- 0 0.0 2.0 71 71
r 0.5094 1 2 cbr 50 ------- 0 0.0 2.0 70 70
+ 0.51 0 1 cbr 50 ------- 0 0.0 2.0 82 82
- 0.51 0 1 cbr 50 ------- 0 0.0 2.0 82 82
r 0.5104 0 1 cbr 50 ------- 0 0.0 2.0 72 72
+ 0.5104 1 2 cbr 50 ------- 0 0.0 2.0 72 72
- 0.5104 1 2 cbr 50 ------- 0 0.0 2.0 72 72
r 0.5144 1 2 cbr 50 ------- 0 0.0 2.0 71 71
+ 0.515 0 1 cbr 50 ------- 0 0.0 2.0 83 83
- 0.515 0 1 cbr 50 ------- 0 0.0 2.0 83 83
r 0.5154 0 1 cbr 50 ------- 0 0.0 2.0 73 73
+ 0.5154 1 2 cbr 50 ------- 0 0.0 2.0 73 73
- 0.5154 1 2 cbr 50 ------- 0 0.0 2.0 73 73
r 0.5194 1 2 cbr 50 ------- 0 0.0 2.0 72 72
+ 0.52 0 1 cbr 50 ------- 0 0.0 2.0 84 84
- 0.52 0 1 cbr 50 ------- 0 0.0 2.0 84 84
r 0.5204 0 1 cbr 50 ------- 0 0.0 2.0 74 74
+ 0.5204 1 2 cbr 50 ------- 0 0.0 2.0 74 74
- 0.5204 1 2 cbr 50 ------- 0 0.0 2.0 74 74
r 0.5244 1 2 cbr 50 ------- 0 0.0 2.0 73 73
+ 0.525 0 1 cbr 50 ------- 0 0.0 2.0 85 85
- 0.525 0 1 cbr 50 ------- 0 0.0 2.0 85 85
r 0.5254 0 1 cbr 50 ------- 0 0.0 2.0 75 75
+ 0.5254 1 2 cbr 50 ------- 0 0.0 2.0 75 75
- 0.5254 1 2 cbr 50 ------- 0 0.0 2.0 75 75
r 0.5294 1 2 cbr 50 ------- 0 0.0 2.0 74 74
+ 0.53 0 1 cbr 50 ------- 0 0.0 2.0 86 86
- 0.53 0 1 cbr 50 ------- 0 0.0 2.0 86 86
r 0.5304 0 1 cbr 50 ------- 0 0.0 2.0 76 76
+ 0.5304 1 2 cbr 50 ------- 0 0.0 2.0 76 76
- 0.5304 1 2 cbr 50 ------- 0 0.0 2.0 76 76
r 0.5344 1 2 cbr 50 ------- 0 0.0 2.0 75 75
+ 0.535 0 1 cbr 50 ------- 0 0.0 2.0 87 87
- 0.535 0 1 cbr 50 ------- 0 0.0 2.0 87 87
r 0.5354 0 1 cbr 50 ------- 0 0.0 2.0 77 77
+ 0.5354 1 2 cbr 50 ------- 0 0.0 2.0 77 77
- 0.5354 1 2 cbr 50 ------- 0 0.0 2.0 77 77
r 0.5394 1 2 cbr 50 ------- 0 0.0 2.0 76 76
+ 0.54 0 1 cbr 50 ------- 0 0.0 2.0 88 88
- 0.54 0 1 cbr 50 ------- 0 0.0 2.0 88 88
r 0.5404 0 1 cbr 50 ------- 0 0.0 2.0 78 78
+ 0.5404 1 2 cbr 50 ------- 0 0.0 2.0 78 78
- 0.5404 1 2 cbr 50 ------- 0 0.0 2.0 78 78
r 0.5444 1 2 cbr 50 ------- 0 0.0 2.0 77 77
+ 0.545 0 1 cbr 50 ------- 0 0.0 2.0 89 89
- 0.545 0 1 cbr 50 ------- 0 0.0 2.0 89 89
r 0.5454 0 1 cbr 50 ------- 0 0.0 2.0 79 79
+ 0.5454 1 2 cbr 50 ------- 0 0.0 2.0 79 79
- 0.5454 1 2 cbr 50 ------- 0 0.0 2.0 79 79
r 0.5494 1 2 cbr 50 ------- 0 0.0 2.0 78 78
+ 0.55 0 1 cbr 50 ------- 0 0.0 2.0 90 90
- 0.55 0 1 cbr 50 ------- 0 0.0 2.0 90 90
r 0.5504 0 1 cbr 50 ------- 0 0.0 2.0 80 80
+ 0.5504 1 2 cbr 50 ------- 0 0.0 2.0 80 80
- 0.5504 1 2 cbr 50 ------- 0 0.0 2.0 80 80
r 0.5544 1 2 cbr 50 ------- 0 0.0 2.0 79 79
+ 0.555 0 1 cbr 50 ------- 0 0.0 2.0 91 91
- 0.555 0 1 cbr 50 ------- 0 0.0 2.0 91 91
r 0.5554 0 1 cbr 50 ------- 0 0.0 2.0 81 81
+ 0.5554 1 2 cbr 50 ------- 0 0.0 2.0 81 81
- 0.5554 1 2 cbr 50 ------- 0 0.0 2.0 81 81
r 0.5594 1 2 cbr 50 ------- 0 0.0 2.0 80 80
+ 0.56 0 1 cbr 50 ------- 0 0.0 2.0 92 92
- 0.56 0 1 cbr 50 ------- 0 0.0 2.0 92 92
r 0.5604 0 1 cbr 50 ------- 0 0.0 2.0 82 82
+ 0.5604 1 2 cbr 50 ------- 0 0.0 2.0 82 82
- 0.5604 1 2 cbr 50 ------- 0 0.0 2.0 82 82
r 0.5644 1 2 cbr 50 ------- 0 0.0 2.0 81 81
+ 0.565 0 1 cbr 50 ------- 0 0.0 2.0 93 93
- 0.565 0 1 cbr 50 ------- 0 0.0 2.0 93 93
r 0.5654 0 1 cbr 50 ------- 0 0.0 2.0 83 83
+ 0.5654 1 2 cbr 50 ------- 0 0.0 2.0 83 83
- 0.5654 1 2 cbr 50 ------- 0 0.0 2.0 83 83
r 0.5694 1 2 cbr 50 ------- 0 0.0 2.0 82 82
+ 0.57 0 1 cbr 50 ------- 0 0.0 2.0 94 94
- 0.57 0 1 cbr 50 ------- 0 0.0 2.0 94 94
r 0.5704 0 1 cbr 50 ------- 0 0.0 2.0 84 84
+ 0.5704 1 2 cbr 50 ------- 0 0.0 2.0 84 84
- 0.5704 1 2 cbr 50 ------- 0 0.0 2.0 84 84
r 0.5744 1 2 cbr 50 ------- 0 0.0 2.0 83 83
+ 0.575 0 1 cbr 50 ------- 0 0.0 2.0 95 95
- 0.575 0 1 cbr 50 ------- 0 0.0 2.0 95 95
r 0.5754 0 1 cbr 50 ------- 0 0.0 2.0 85 85
+ 0.5754 1 2 cbr 50 ------- 0 0.0 2.0 85 85
- 0.5754 1 2 cbr 50 ------- 0 0.0 2.0 85 85
r 0.5794 1 2 cbr 50 ------- 0 0.0 2.0 84 84
+ 0.58 0 1 cbr 50 ------- 0 0.0 2.0 96 96
- 0.58 0 1 cbr 50 ------- 0 0.0 2.0 96 96
r 0.5804 0 1 cbr 50 ------- 0 0.0 2.0 86 86
+ 0.5804 1 2 cbr 50 ------- 0 0.0 2.0 86 86
- 0.5804 1 2 cbr 50 ------- 0 0.0 2.0 86 86
r 0.5844 1 2 cbr 50 ------- 0 0.0 2.0 85 85
+ 0.585 0 1 cbr 50 ------- 0 0.0 2.0 97 97
- 0.585 0 1 cbr 50 ------- 0 0.0 2.0 97 97
r 0.5854 0 1 cbr 50 ------- 0 0.0 2.0 87 87
+ 0.5854 1 2 cbr 50 ------- 0 0.0 2.0 87 87
- 0.5854 1 2 cbr 50 ------- 0 0.0 2.0 87 87
r 0.5894 1 2 cbr 50 ------- 0 0.0 2.0 86 86
+ 0.59 0 1 cbr 50 ------- 0 0.0 2.0 98 98
- 0.59 0 1 cbr 50 ------- 0 0.0 2.0 98 98
r 0.5904 0 1 cbr 50 ------- 0 0.0 2.0 88 88
+ 0.5904 1 2 cbr 50 ------- 0 0.0 2.0 88 88
- 0.5904 1 2 cbr 50 ------- 0 0.0 2.0 88 88
r 0.5944 1 2 cbr 50 ------- 0 0.0 2.0 87 87
+ 0.595 0 1 cbr 50 ------- 0 0.0 2.0 99 99
- 0.595 0 1 cbr 50 ------- 0 0.0 2.0 99 99
r 0.5954 0 1 cbr 50 ------- 0 0.0 2.0 89 89
+ 0.5954 1 2 cbr 50 ------- 0 0.0 2.0 89 89
- 0.5954 1 2 cbr 50 ------- 0 0.0 2.0 89 89
r 0.5994 1 2 cbr 50 ------- 0 0.0 2.0 88 88
+ 0.6 0 1 cbr 50 ------- 0 0.0 2.0 100 100
- 0.6 0 1 cbr 50 ------- 0 0.0 2.0 100 100
r 0.6004 0 1 cbr 50 ------- 0 0.0 2.0 90 90
+ 0.6004 1 2 cbr 50 ------- 0 0.0 2.0 90 90
- 0.6004 1 2 cbr 50 ------- 0 0.0 2.0 90 90
r 0.6044 1 2 cbr 50 ------- 0 0.0 2.0 89 89
+ 0.605 0 1 cbr 50 ------- 0 0.0 2.0 101 101
- 0.605 0 1 cbr 50 ------- 0 0.0 2.0 101 101
r 0.6054 0 1 cbr 50 ------- 0 0.0 2.0 91 91
+ 0.6054 1 2 cbr 50 ------- 0 0.0 2.0 91 91
- 0.6054 1 2 cbr 50 ------- 0 0.0 2.0 91 91
r 0.6094 1 2 cbr 50 ------- 0 0.0 2.0 90 90
+ 0.61 0 1 cbr 50 ------- 0 0.0 2.0 102 102
- 0.61 0 1 cbr 50 ------- 0 0.0 2.0 102 102
r 0.6104 0 1 cbr 50 ------- 0 0.0 2.0 92 92
+ 0.6104 1 2 cbr 50 ------- 0 0.0 2.0 92 92
- 0.6104 1 2 cbr 50 ------- 0 0.0 2.0 92 92
r 0.6144 1 2 cbr 50 ------- 0 0.0 2.0 91 91
+ 0.615 0 1 cbr 50 ------- 0 0.0 2.0 103 103
- 0.615 0 1 cbr 50 ------- 0 0.0 2.0 103 103
r 0.6154 0 1 cbr 50 ------- 0 0.0 2.0 93 93
+ 0.6154 1 2 cbr 50 ------- 0 0.0 2.0 93 93
- 0.6154 1 2 cbr 50 ------- 0 0.0 2.0 93 93
r 0.6194 1 2 cbr 50 ------- 0 0.0 2.0 92 92
+ 0.62 0 1 cbr 50 ------- 0 0.0 2.0 104 104
- 0.62 0 1 cbr 50 ------- 0 0.0 2.0 104 104
r 0.6204 0 1 cbr 50 ------- 0 0.0 2.0 94 94
+ 0.6204 1 2 cbr 50 ------- 0 0.0 2.0 94 94
- 0.6204 1 2 cbr 50 ------- 0 0.0 2.0 94 94
r 0.6244 1 2 cbr 50 ------- 0 0.0 2.0 93 93
+ 0.625 0 1 cbr 50 ------- 0 0.0 2.0 105 105
- 0.625 0 1 cbr 50 ------- 0 0.0 2.0 105 105
r 0.6254 0 1 cbr 50 ------- 0 0.0 2.0 95 95
+ 0.6254 1 2 cbr 50 ------- 0 0.0 2.0 95 95
- 0.6254 1 2 cbr 50 ------- 0 0.0 2.0 95 95
r 0.6294 1 2 cbr 50 ------- 0 0.0 2.0 94 94
+ 0.63 0 1 cbr 50 ------- 0 0.0 2.0 106 106
- 0.63 0 1 cbr 50 ------- 0 0.0 2.0 106 106
r 0.6304 0 1 cbr 50 ------- 0 0.0 2.0 96 96
+ 0.6304 1 2 cbr 50 ------- 0 0.0 2.0 96 96
- 0.6304 1 2 cbr 50 ------- 0 0.0 2.0 96 96
r 0.6344 1 2 cbr 50 ------- 0 0.0 2.0 95 95
+ 0.635 0 1 cbr 50 ------- 0 0.0 2.0 107 107
- 0.635 0 1 cbr 50 ------- 0 0.0 2.0 107 107
r 0.6354 0 1 cbr 50 ------- 0 0.0 2.0 97 97
+ 0.6354 1 2 cbr 50 ------- 0 0.0 2.0 97 97
- 0.6354 1 2 cbr 50 ------- 0 0.0 2.0 97 97
r 0.6394 1 2 cbr 50 ------- 0 0.0 2.0 96 96
+ 0.64 0 1 cbr 50 ------- 0 0.0 2.0 108 108
- 0.64 0 1 cbr 50 ------- 0 0.0 2.0 108 108
r 0.6404 0 1 cbr 50 ------- 0 0.0 2.0 98 98
+ 0.6404 1 2 cbr 50 ------- 0 0.0 2.0 98 98
- 0.6404 1 2 cbr 50 ------- 0 0.0 2.0 98 98
r 0.6444 1 2 cbr 50 ------- 0 0.0 2.0 97 97
+ 0.645 0 1 cbr 50 ------- 0 0.0 2.0 109 109
- 0.645 0 1 cbr 50 ------- 0 0.0 2.0 109 109
r 0.6454 0 1 cbr 50 ------- 0 0.0 2.0 99 99
+ 0.6454 1 2 cbr 50 ------- 0 0.0 2.0 99 99
- 0.6454 1 2 cbr 50 ------- 0 0.0 2.0 99 99
r 0.6494 1 2 cbr 50 ------- 0 0.0 2.0 98 98
+ 0.65 0 1 cbr 50 ------- 0 0.0 2.0 110 110
- 0.65 0 1 cbr 50 ------- 0 0.0 2.0 110 110
r 0.6504 0 1 cbr 50 ------- 0 0.0 2.0 100 100
+ 0.6504 1 2 cbr 50 ------- 0 0.0 2.0 100 100
- 0.6504 1 2 cbr 50 ------- 0 0.0 2.0 100 100
r 0.6544 1 2 cbr 50 ------- 0 0.0 2.0 99 99
+ 0.655 0 1 cbr 50 ------- 0 0.0 2.0 111 111
- 0.655 0 1 cbr 50 ------- 0 0.0 2.0 111 111
r 0.6554 0 1 cbr 50 ------- 0 0.0 2.0 101 101
+ 0.6554 1 2 cbr 50 ------- 0 0.0 2.0 101 101
- 0.6554 1 2 cbr 50 ------- 0 0.0 2.0 101 101
r 0.6594 1 2 cbr 50 ------- 0 0.0 2.0 100 100
+ 0.66 0 1 cbr 50 ------- 0 0.0 2.0 112 112
- 0.66 0 1 cbr 50 ------- 0 0.0 2.0 112 112
r 0.6604 0 1 cbr 50 ------- 0 0.0 2.0 102 102
+ 0.6604 1 2 cbr 50 ------- 0 0.0 2.0 102 102
- 0.6604 1 2 cbr 50 ------- 0 0.0 2.0 102 102
r 0.6644 1 2 cbr 50 ------- 0 0.0 2.0 101 101
+ 0.665 0 1 cbr 50 ------- 0 0.0 2.0 113 113
- 0.665 0 1 cbr 50 ------- 0 0.0 2.0 113 113
r 0.6654 0 1 cbr 50 ------- 0 0.0 2.0 103 103
+ 0.6654 1 2 cbr 50 ------- 0 0.0 2.0 103 103
- 0.6654 1 2 cbr 50 ------- 0 0.0 2.0 103 103
r 0.6694 1 2 cbr 50 ------- 0 0.0 2.0 102 102
+ 0.67 0 1 cbr 50 ------- 0 0.0 2.0 114 114
- 0.67 0 1 cbr 50 ------- 0 0.0 2.0 114 114
r 0.6704 0 1 cbr 50 ------- 0 0.0 2.0 104 104
+ 0.6704 1 2 cbr 50 ------- 0 0.0 2.0 104 104
- 0.6704 1 2 cbr 50 ------- 0 0.0 2.0 104 104
r 0.6744 1 2 cbr 50 ------- 0 0.0 2.0 103 103
+ 0.675 0 1 cbr 50 ------- 0 0.0 2.0 115 115
- 0.675 0 1 cbr 50 ------- 0 0.0 2.0 115 115
r 0.6754 0 1 cbr 50 ------- 0 0.0 2.0 105 105
+ 0.6754 1 2 cbr 50 ------- 0 0.0 2.0 105 105
- 0.6754 1 2 cbr 50 ------- 0 0.0 2.0 105 105
r 0.6794 1 2 cbr 50 ------- 0 0.0 2.0 104 104
+ 0.68 0 1 cbr 50 ------- 0 0.0 2.0 116 116
- 0.68 0 1 cbr 50 ------- 0 0.0 2.0 116 116
r 0.6804 0 1 cbr 50 ------- 0 0.0 2.0 106 106
+ 0.6804 1 2 cbr 50 ------- 0 0.0 2.0 106 106
- 0.6804 1 2 cbr 50 ------- 0 0.0 2.0 106 106
r 0.6844 1 2 cbr 50 ------- 0 0.0 2.0 105 105
+ 0.685 0 1 cbr 50 ------- 0 0.0 2.0 117 117
- 0.685 0 1 cbr 50 ------- 0 0.0 2.0 117 117
r 0.6854 0 1 cbr 50 ------- 0 0.0 2.0 107 107
+ 0.6854 1 2 cbr 50 ------- 0 0.0 2.0 107 107
- 0.6854 1 2 cbr 50 ------- 0 0.0 2.0 107 107
r 0.6894 1 2 cbr 50 ------- 0 0.0 2.0 106 106
+ 0.69 0 1 cbr 50 ------- 0 0.0 2.0 118 118
- 0.69 0 1 cbr 50 ------- 0 0.0 2.0 118 118
r 0.6904 0 1 cbr 50 ------- 0 0.0 2.0 108 108
+ 0.6904 1 2 cbr 50 ------- 0 0.0 2.0 108 108
- 0.6904 1 2 cbr 50 ------- 0 0.0 2.0 108 108
r 0.6944 1 2 cbr 50 ------- 0 0.0 2.0 107 107
+ 0.695 0 1 cbr 50 ------- 0 0.0 2.0 119 119
- 0.695 0 1 cbr 50 ------- 0 0.0 2.0 119 119
r 0.6954 0 1 cbr 50 ------- 0 0.0 2.0 109 109
+ 0.6954 1 2 cbr 50 ------- 0 0.0 2.0 109 109
- 0.6954 1 2 cbr 50 ------- 0 0.0 2.0 109 109
r 0.6994 1 2 cbr 50 ------- 0 0.0 2.0 108 108
+ 0.7 0 1 cbr 50 ------- 0 0.0 2.0 120 120
- 0.7 0 1 cbr 50 ------- 0 0.0 2.0 120 120
r 0.7004 0 1 cbr 50 ------- 0 0.0 2.0 110 110
+ 0.7004 1 2 cbr 50 ------- 0 0.0 2.0 110 110
- 0.7004 1 2 cbr 50 ------- 0 0.0 2.0 110 110
r 0.7044 1 2 cbr 50 ------- 0 0.0 2.0 109 109
+ 0.705 0 1 cbr 50 ------- 0 0.0 2.0 121 121
- 0.705 0 1 cbr 50 ------- 0 0.0 2.0 121 121
r 0.7054 0 1 cbr 50 ------- 0 0.0 2.0 111 111
+ 0.7054 1 2 cbr 50 ------- 0 0.0 2.0 111 111